 Entering Gaussian System, Link 0=g16
 Input=tests/amber_10AA/amber_run/sp_gaussian_temp_mol.gin
 Output=tests/amber_10AA/amber_run/sp_gaussian_temp_mol.log
 Initial command:
 /software/gaussian/g16-A.03/avx/g16/l1.exe "/scratch-store/scratch/jvillard/GAcode/Gau-26259.inp" -scrdir="/scratch-store/scratch/jvillard/GAcode/"
 Entering Link 1 = /software/gaussian/g16-A.03/avx/g16/l1.exe PID=     26261.
  
 Copyright (c) 1988,1990,1992,1993,1995,1998,2003,2009,2016,
            Gaussian, Inc.  All Rights Reserved.
  
 This is part of the Gaussian(R) 16 program.  It is based on
 the Gaussian(R) 09 system (copyright 2009, Gaussian, Inc.),
 the Gaussian(R) 03 system (copyright 2003, Gaussian, Inc.),
 the Gaussian(R) 98 system (copyright 1998, Gaussian, Inc.),
 the Gaussian(R) 94 system (copyright 1995, Gaussian, Inc.),
 the Gaussian 92(TM) system (copyright 1992, Gaussian, Inc.),
 the Gaussian 90(TM) system (copyright 1990, Gaussian, Inc.),
 the Gaussian 88(TM) system (copyright 1988, Gaussian, Inc.),
 the Gaussian 86(TM) system (copyright 1986, Carnegie Mellon
 University), and the Gaussian 82(TM) system (copyright 1983,
 Carnegie Mellon University). Gaussian is a federally registered
 trademark of Gaussian, Inc.
  
 This software contains proprietary and confidential information,
 including trade secrets, belonging to Gaussian, Inc.
  
 This software is provided under written license and may be
 used, copied, transmitted, or stored only in accord with that
 written license.
  
 The following legend is applicable only to US Government
 contracts under FAR:
  
                    RESTRICTED RIGHTS LEGEND
  
 Use, reproduction and disclosure by the US Government is
 subject to restrictions as set forth in subparagraphs (a)
 and (c) of the Commercial Computer Software - Restricted
 Rights clause in FAR 52.227-19.
  
 Gaussian, Inc.
 340 Quinnipiac St., Bldg. 40, Wallingford CT 06492
  
  
 ---------------------------------------------------------------
 Warning -- This program may not be used in any manner that
 competes with the business of Gaussian, Inc. or will provide
 assistance to any competitor of Gaussian, Inc.  The licensee
 of this program is prohibited from giving any competitor of
 Gaussian, Inc. access to this program.  By using this program,
 the user acknowledges that Gaussian, Inc. is engaged in the
 business of creating and licensing software in the field of
 computational chemistry and represents and warrants to the
 licensee that it is not a competitor of Gaussian, Inc. and that
 it will not use this program in any manner prohibited above.
 ---------------------------------------------------------------
  

 Cite this work as:
 Gaussian 16, Revision A.03,
 M. J. Frisch, G. W. Trucks, H. B. Schlegel, G. E. Scuseria, 
 M. A. Robb, J. R. Cheeseman, G. Scalmani, V. Barone, 
 G. A. Petersson, H. Nakatsuji, X. Li, M. Caricato, A. V. Marenich, 
 J. Bloino, B. G. Janesko, R. Gomperts, B. Mennucci, H. P. Hratchian, 
 J. V. Ortiz, A. F. Izmaylov, J. L. Sonnenberg, D. Williams-Young, 
 F. Ding, F. Lipparini, F. Egidi, J. Goings, B. Peng, A. Petrone, 
 T. Henderson, D. Ranasinghe, V. G. Zakrzewski, J. Gao, N. Rega, 
 G. Zheng, W. Liang, M. Hada, M. Ehara, K. Toyota, R. Fukuda, 
 J. Hasegawa, M. Ishida, T. Nakajima, Y. Honda, O. Kitao, H. Nakai, 
 T. Vreven, K. Throssell, J. A. Montgomery, Jr., J. E. Peralta, 
 F. Ogliaro, M. J. Bearpark, J. J. Heyd, E. N. Brothers, K. N. Kudin, 
 V. N. Staroverov, T. A. Keith, R. Kobayashi, J. Normand, 
 K. Raghavachari, A. P. Rendell, J. C. Burant, S. S. Iyengar, 
 J. Tomasi, M. Cossi, J. M. Millam, M. Klene, C. Adamo, R. Cammi, 
 J. W. Ochterski, R. L. Martin, K. Morokuma, O. Farkas, 
 J. B. Foresman, and D. J. Fox, Gaussian, Inc., Wallingford CT, 2016.
 
 ******************************************
 Gaussian 16:  ES64L-G16RevA.03 25-Dec-2016
                23-Feb-2018 
 ******************************************
 %nproc=16
 Will use up to   16 processors via shared memory.
 %Chk=tests/amber_10AA/amber_run/sp_or_opt_gaussian_temp_mol.chk
 %RWF=tests/amber_10AA/amber_run/
 %Int=tests/amber_10AA/amber_run/
 %D2E=tests/amber_10AA/amber_run/
 -----------------------------------------------------
 #P HF/6-31G* Geom=nocrowd Pop=MK IOp(6/33=2, 6/42=17)
 -----------------------------------------------------
 1/38=1,172=1/1;
 2/12=1,17=6,18=5,40=1/2;
 3/5=1,6=6,7=1,11=9,25=1,30=1/1,2,3;
 4//1;
 5/5=2,38=5/2;
 6/7=2,8=2,9=2,10=2,15=8,20=1,28=1,33=2,42=17/1,2;
 99/5=1,9=1/99;
 Leave Link    1 at Fri Feb 23 14:50:47 2018, MaxMem=           0 cpu:               0.8 elap:               0.1
 (Enter /software/gaussian/g16-A.03/avx/g16/l101.exe)
 ----------------------------------------------------
 HF single point computation on opt_gaussian_temp_mol
 ----------------------------------------------------
 Symbolic Z-matrix:
 Charge =  0 Multiplicity = 1
 N                     29.939    17.702    26.575 
 H                     29.814    16.701    26.527 
 H                     30.922    17.931    26.608 
 H                     29.449    18.252    27.266 
 C                     29.417    18.233    25.277 
 H                     29.74     17.587    24.461 
 C                     27.934    18.016    25.248 
 H                     27.588    18.353    26.225 
 H                     27.458    18.616    24.472 
 H                     27.629    16.973    25.169 
 C                     29.872    19.679    25.103 
 O                     30.06849   20.10955   23.98436 
 N                     30.05176   20.43734   26.17262 
 H                     29.90156   19.91036   27.02133 
 C                     30.65243   21.77309   26.32305 
 H                     31.49226   21.78232   25.62917 
 C                     29.54552   22.86767   26.08075 
 H                     28.69442   22.77491   26.75705 
 H                     30.08932   23.80179   26.22183 
 C                     28.92802   22.89495   24.62871 
 H                     29.7641   23.12194   23.9672 
 H                     28.43632   21.94889   24.40262 
 C                     27.81893   23.85986   24.52248 
 H                     27.10845   23.61622   25.31153 
 H                     28.32029   24.82443   24.60038 
 C                     27.06914   23.87211   23.22327 
 H                     27.77074   23.86348   22.38932 
 H                     26.54181   22.91945   23.15652 
 N                     26.0087   24.94677   23.22475 
 H                     26.27601   25.82916   23.63571 
 H                     25.74437   25.13788   22.26924 
 H                     25.14137   24.58498   23.59562 
 C                     31.22375   21.99644   27.71259 
 O                     30.48588   21.78295   28.74768 
 N                     32.43105   22.47556   27.74595 
 H                     32.90987   22.61946   26.86895 
 C                     33.23865   22.6035   28.92133 
 H                     34.21393   22.97561   28.60641 
 C                     32.7417   23.70739   29.91971 
 H                     31.67874   23.52422   30.07165 
 H                     33.21354   23.50074   30.87968 
 C                     32.95132   25.0828   29.3667 
 C                     32.79443   25.53149   28.10118 
 H                     32.50861   24.90862   27.26587 
 N                     32.99324   26.84628   28.12496 
 H                     32.64299   27.43926   27.38607 
 C                     33.26228   27.37666   29.35702 
 C                     33.54176   28.62761   29.92936 
 H                     33.55648   29.55806   29.38168 
 C                     33.83446   28.80222   31.33532 
 H                     33.95167   29.80481   31.71885 
 C                     33.9573   27.63461   32.1231 
 H                     34.28348   27.6663   33.15169 
 C                     33.62562   26.37546   31.58084 
 H                     33.54872   25.54228   32.26377 
 C                     33.29936   26.23398   30.21024 
 C                     33.52572   21.19687   29.42707 
 O                     34.60864   20.74005   29.12025 
 N                     32.52541   20.4856   29.87618 
 H                     31.62704   20.94489   29.90757 
 C                     32.56406   19.03367   30.24687 
 H                     31.67675   18.64588   30.74549 
 C                     32.63091   18.1715   29.01134 
 H                     33.68335   18.17021   28.72949 
 C                     32.19799   16.78473   29.37691 
 H                     32.88827   16.26794   30.04364 
 H                     31.16127   16.66992   29.69229 
 H                     32.2723   16.24736   28.43109 
 C                     31.89207   18.61816   27.74976 
 H                     32.15583   19.65268   27.52634 
 H                     32.39542   18.04322   26.97287 
 H                     30.81057   18.48676   27.78788 
 C                     33.70342   18.64819   31.28727 
 O                     34.60993   17.93068   30.84741 
 N                     33.68662   19.08457   32.51052 
 H                     32.99063   19.78868   32.7103 
 C                     34.54759   18.65886   33.58639 
 H                     34.01534   18.99838   34.47557 
 C                     34.6672   17.1275   33.57218 
 H                     34.37403   16.67488   32.62496 
 H                     35.7043   16.92259   33.83939 
 S                     33.64983   16.46331   34.92489 
 C                     35.99624   19.29477   33.47072 
 O                     36.97335   18.69104   33.89548 
 H                     34.02679   17.03685   36.09943 
 N                     36.13581   20.51627   32.96248 
 H                     35.32259   21.06174   32.71407 
 C                     37.44217   21.15939   32.89261 
 H                     38.09294   20.54205   33.51205 
 C                     37.97676   21.0895   31.39584 
 H                     37.22899   21.5799   30.77214 
 H                     38.87188   21.709    31.45186 
 C                     38.26784   19.70548   30.74821 
 H                     39.03977   19.26716   31.38159 
 H                     37.40631   19.05042   30.87623 
 C                     38.8106   19.78245   29.32268 
 H                     37.99394   19.92306   28.61385 
 H                     39.42331   20.67881   29.23607 
 C                     39.44862   18.46261   28.96755 
 H                     39.63962   18.29072   27.90783 
 H                     40.32072   18.31858   29.60491 
 N                     38.58894   17.29431   29.24521 
 H                     39.02541   16.3858   29.19597 
 H                     38.1752   17.41291   30.15942 
 H                     37.75852   17.24109   28.67212 
 C                     37.36443   22.57272   33.36056 
 O                     38.37963   23.20417   33.51622 
 N                     36.21912   23.11292   33.68836 
 H                     35.44691   22.47414   33.81606 
 C                     35.88838   24.51185   34.14921 
 H                     36.81374   25.05379   34.34188 
 C                     35.03361   25.17889   33.11977 
 H                     34.18239   24.51892   32.95252 
 C                     34.48338   26.57591   33.46506 
 H                     35.31896   27.22997   33.71503 
 H                     34.00301   26.95166   32.56145 
 H                     33.68785   26.5715   34.21019 
 C                     35.73354   25.33603   31.65659 
 H                     35.86287   24.33814   31.23604 
 H                     34.99446   25.79104   30.99736 
 C                     36.9951   26.15374   31.58683 
 H                     37.79537   25.83868   32.25744 
 H                     37.2716   26.3644   30.55382 
 H                     36.76748   27.15575   31.94843 
 C                     35.15768   24.62898   35.50206 
 O                     34.25578   23.87198   35.79584 
 N                     35.42845   25.76008   36.1855 
 H                     36.1742   26.35418   35.85477 
 C                     34.72896   26.1368   37.40793 
 H                     35.13864   27.07791   37.77655 
 C                     33.28725   26.3006   37.04119 
 H                     32.99857   25.39997   36.49852 
 H                     32.63253   26.1688   37.90236 
 S                     32.83381   27.66388   35.93623 
 C                     34.94021   25.12403   38.61679 
 O                     33.96186   24.62648   39.20347 
 H                     33.71991   27.72631   34.90682 
 N                     36.14926   24.74873   39.02766 
 H                     36.91346   25.16871   38.51882 
 C                     36.43489   23.80426   40.12371 
 H                     37.4305   24.01534   40.51314 
 H                     35.71513   23.86071   40.94058 
 C                     36.37032   22.33265   39.67493 
 O                     36.33817   21.49674   40.55347 
 N                     36.5835   22.06759   38.36858 
 H                     36.62867   22.90755   37.8097 
 C                     36.88737   20.82623   37.73732 
 H                     36.38274   19.97043   38.18676 
 C                     36.18222   20.84354   36.33362 
 H                     36.20508   19.85263   35.8808 
 H                     35.14019   21.14808   36.42683 
 C                     36.72463   22.00017   35.51383 
 C                     36.45716   23.3568   35.82466 
 H                     36.01752   23.5807   36.78542 
 C                     37.04659   24.36752   35.01009 
 H                     36.89409   25.39794   35.29312 
 C                     37.85399   24.00485   33.91588 
 O                     38.67042   24.9687   33.21957 
 H                     38.49258   25.87393   33.48791 
 C                     38.06559   22.6367   33.64092 
 H                     38.75628   22.37137   32.85448 
 C                     37.52903   21.62515   34.44882 
 H                     37.79895   20.59806   34.25267 
 C                     38.40076   20.68638   37.7038 
 O                     39.08356   21.62882   37.42305 
 
 ITRead=  0  0  0  0  0  0  0  0  0  0  0  0  0  0  0  0  0  0  0  0
 ITRead=  0  0  0  0  0  0  0  0  0  0  0  0  0  0  0  0  0  0  0  0
 ITRead=  0  0  0  0  0  0  0  0  0  0  0  0  0  0  0  0  0  0  0  0
 ITRead=  0  0  0  0  0  0  0  0  0  0  0  0  0  0  0  0  0  0  0  0
 ITRead=  0  0  0  0  0  0  0  0  0  0  0  0  0  0  0  0  0  0  0  0
 ITRead=  0  0  0  0  0  0  0  0  0  0  0  0  0  0  0  0  0  0  0  0
 ITRead=  0  0  0  0  0  0  0  0  0  0  0  0  0  0  0  0  0  0  0  0
 ITRead=  0  0  0  0  0  0  0  0  0  0  0  0  0  0  0  0  0  0  0  0
 ITRead=  0  0  0  0  0
 MicOpt= -1 -1 -1 -1 -1 -1 -1 -1 -1 -1 -1 -1 -1 -1 -1 -1 -1 -1 -1 -1
 MicOpt= -1 -1 -1 -1 -1 -1 -1 -1 -1 -1 -1 -1 -1 -1 -1 -1 -1 -1 -1 -1
 MicOpt= -1 -1 -1 -1 -1 -1 -1 -1 -1 -1 -1 -1 -1 -1 -1 -1 -1 -1 -1 -1
 MicOpt= -1 -1 -1 -1 -1 -1 -1 -1 -1 -1 -1 -1 -1 -1 -1 -1 -1 -1 -1 -1
 MicOpt= -1 -1 -1 -1 -1 -1 -1 -1 -1 -1 -1 -1 -1 -1 -1 -1 -1 -1 -1 -1
 MicOpt= -1 -1 -1 -1 -1 -1 -1 -1 -1 -1 -1 -1 -1 -1 -1 -1 -1 -1 -1 -1
 MicOpt= -1 -1 -1 -1 -1 -1 -1 -1 -1 -1 -1 -1 -1 -1 -1 -1 -1 -1 -1 -1
 MicOpt= -1 -1 -1 -1 -1 -1 -1 -1 -1 -1 -1 -1 -1 -1 -1 -1 -1 -1 -1 -1
 MicOpt= -1 -1 -1 -1 -1
 NAtoms=    165 NQM=      165 NQMF=       0 NMMI=      0 NMMIF=      0
                NMic=       0 NMicF=      0.
                    Isotopes and Nuclear Properties:
 (Nuclear quadrupole moments (NQMom) in fm**2, nuclear magnetic moments (NMagM)
  in nuclear magnetons)

  Atom         1           2           3           4           5           6           7           8           9          10
 IAtWgt=          14           1           1           1          12           1          12           1           1           1
 AtmWgt=  14.0030740   1.0078250   1.0078250   1.0078250  12.0000000   1.0078250  12.0000000   1.0078250   1.0078250   1.0078250
 NucSpn=           2           1           1           1           0           1           0           1           1           1
 AtZEff=  -0.0000000  -0.0000000  -0.0000000  -0.0000000  -0.0000000  -0.0000000  -0.0000000  -0.0000000  -0.0000000  -0.0000000
 NQMom=    2.0440000   0.0000000   0.0000000   0.0000000   0.0000000   0.0000000   0.0000000   0.0000000   0.0000000   0.0000000
 NMagM=    0.4037610   2.7928460   2.7928460   2.7928460   0.0000000   2.7928460   0.0000000   2.7928460   2.7928460   2.7928460
 AtZNuc=   7.0000000   1.0000000   1.0000000   1.0000000   6.0000000   1.0000000   6.0000000   1.0000000   1.0000000   1.0000000

  Atom        11          12          13          14          15          16          17          18          19          20
 IAtWgt=          12          16          14           1          12           1          12           1           1          12
 AtmWgt=  12.0000000  15.9949146  14.0030740   1.0078250  12.0000000   1.0078250  12.0000000   1.0078250   1.0078250  12.0000000
 NucSpn=           0           0           2           1           0           1           0           1           1           0
 AtZEff=  -0.0000000  -0.0000000  -0.0000000  -0.0000000  -0.0000000  -0.0000000  -0.0000000  -0.0000000  -0.0000000  -0.0000000
 NQMom=    0.0000000   0.0000000   2.0440000   0.0000000   0.0000000   0.0000000   0.0000000   0.0000000   0.0000000   0.0000000
 NMagM=    0.0000000   0.0000000   0.4037610   2.7928460   0.0000000   2.7928460   0.0000000   2.7928460   2.7928460   0.0000000
 AtZNuc=   6.0000000   8.0000000   7.0000000   1.0000000   6.0000000   1.0000000   6.0000000   1.0000000   1.0000000   6.0000000

  Atom        21          22          23          24          25          26          27          28          29          30
 IAtWgt=           1           1          12           1           1          12           1           1          14           1
 AtmWgt=   1.0078250   1.0078250  12.0000000   1.0078250   1.0078250  12.0000000   1.0078250   1.0078250  14.0030740   1.0078250
 NucSpn=           1           1           0           1           1           0           1           1           2           1
 AtZEff=  -0.0000000  -0.0000000  -0.0000000  -0.0000000  -0.0000000  -0.0000000  -0.0000000  -0.0000000  -0.0000000  -0.0000000
 NQMom=    0.0000000   0.0000000   0.0000000   0.0000000   0.0000000   0.0000000   0.0000000   0.0000000   2.0440000   0.0000000
 NMagM=    2.7928460   2.7928460   0.0000000   2.7928460   2.7928460   0.0000000   2.7928460   2.7928460   0.4037610   2.7928460
 AtZNuc=   1.0000000   1.0000000   6.0000000   1.0000000   1.0000000   6.0000000   1.0000000   1.0000000   7.0000000   1.0000000

  Atom        31          32          33          34          35          36          37          38          39          40
 IAtWgt=           1           1          12          16          14           1          12           1          12           1
 AtmWgt=   1.0078250   1.0078250  12.0000000  15.9949146  14.0030740   1.0078250  12.0000000   1.0078250  12.0000000   1.0078250
 NucSpn=           1           1           0           0           2           1           0           1           0           1
 AtZEff=  -0.0000000  -0.0000000  -0.0000000  -0.0000000  -0.0000000  -0.0000000  -0.0000000  -0.0000000  -0.0000000  -0.0000000
 NQMom=    0.0000000   0.0000000   0.0000000   0.0000000   2.0440000   0.0000000   0.0000000   0.0000000   0.0000000   0.0000000
 NMagM=    2.7928460   2.7928460   0.0000000   0.0000000   0.4037610   2.7928460   0.0000000   2.7928460   0.0000000   2.7928460
 AtZNuc=   1.0000000   1.0000000   6.0000000   8.0000000   7.0000000   1.0000000   6.0000000   1.0000000   6.0000000   1.0000000

  Atom        41          42          43          44          45          46          47          48          49          50
 IAtWgt=           1          12          12           1          14           1          12          12           1          12
 AtmWgt=   1.0078250  12.0000000  12.0000000   1.0078250  14.0030740   1.0078250  12.0000000  12.0000000   1.0078250  12.0000000
 NucSpn=           1           0           0           1           2           1           0           0           1           0
 AtZEff=  -0.0000000  -0.0000000  -0.0000000  -0.0000000  -0.0000000  -0.0000000  -0.0000000  -0.0000000  -0.0000000  -0.0000000
 NQMom=    0.0000000   0.0000000   0.0000000   0.0000000   2.0440000   0.0000000   0.0000000   0.0000000   0.0000000   0.0000000
 NMagM=    2.7928460   0.0000000   0.0000000   2.7928460   0.4037610   2.7928460   0.0000000   0.0000000   2.7928460   0.0000000
 AtZNuc=   1.0000000   6.0000000   6.0000000   1.0000000   7.0000000   1.0000000   6.0000000   6.0000000   1.0000000   6.0000000

  Atom        51          52          53          54          55          56          57          58          59          60
 IAtWgt=           1          12           1          12           1          12          12          16          14           1
 AtmWgt=   1.0078250  12.0000000   1.0078250  12.0000000   1.0078250  12.0000000  12.0000000  15.9949146  14.0030740   1.0078250
 NucSpn=           1           0           1           0           1           0           0           0           2           1
 AtZEff=  -0.0000000  -0.0000000  -0.0000000  -0.0000000  -0.0000000  -0.0000000  -0.0000000  -0.0000000  -0.0000000  -0.0000000
 NQMom=    0.0000000   0.0000000   0.0000000   0.0000000   0.0000000   0.0000000   0.0000000   0.0000000   2.0440000   0.0000000
 NMagM=    2.7928460   0.0000000   2.7928460   0.0000000   2.7928460   0.0000000   0.0000000   0.0000000   0.4037610   2.7928460
 AtZNuc=   1.0000000   6.0000000   1.0000000   6.0000000   1.0000000   6.0000000   6.0000000   8.0000000   7.0000000   1.0000000

  Atom        61          62          63          64          65          66          67          68          69          70
 IAtWgt=          12           1          12           1          12           1           1           1          12           1
 AtmWgt=  12.0000000   1.0078250  12.0000000   1.0078250  12.0000000   1.0078250   1.0078250   1.0078250  12.0000000   1.0078250
 NucSpn=           0           1           0           1           0           1           1           1           0           1
 AtZEff=  -0.0000000  -0.0000000  -0.0000000  -0.0000000  -0.0000000  -0.0000000  -0.0000000  -0.0000000  -0.0000000  -0.0000000
 NQMom=    0.0000000   0.0000000   0.0000000   0.0000000   0.0000000   0.0000000   0.0000000   0.0000000   0.0000000   0.0000000
 NMagM=    0.0000000   2.7928460   0.0000000   2.7928460   0.0000000   2.7928460   2.7928460   2.7928460   0.0000000   2.7928460
 AtZNuc=   6.0000000   1.0000000   6.0000000   1.0000000   6.0000000   1.0000000   1.0000000   1.0000000   6.0000000   1.0000000

  Atom        71          72          73          74          75          76          77          78          79          80
 IAtWgt=           1           1          12          16          14           1          12           1          12           1
 AtmWgt=   1.0078250   1.0078250  12.0000000  15.9949146  14.0030740   1.0078250  12.0000000   1.0078250  12.0000000   1.0078250
 NucSpn=           1           1           0           0           2           1           0           1           0           1
 AtZEff=  -0.0000000  -0.0000000  -0.0000000  -0.0000000  -0.0000000  -0.0000000  -0.0000000  -0.0000000  -0.0000000  -0.0000000
 NQMom=    0.0000000   0.0000000   0.0000000   0.0000000   2.0440000   0.0000000   0.0000000   0.0000000   0.0000000   0.0000000
 NMagM=    2.7928460   2.7928460   0.0000000   0.0000000   0.4037610   2.7928460   0.0000000   2.7928460   0.0000000   2.7928460
 AtZNuc=   1.0000000   1.0000000   6.0000000   8.0000000   7.0000000   1.0000000   6.0000000   1.0000000   6.0000000   1.0000000

  Atom        81          82          83          84          85          86          87          88          89          90
 IAtWgt=           1          32          12          16           1          14           1          12           1          12
 AtmWgt=   1.0078250  31.9720718  12.0000000  15.9949146   1.0078250  14.0030740   1.0078250  12.0000000   1.0078250  12.0000000
 NucSpn=           1           0           0           0           1           2           1           0           1           0
 AtZEff=  -0.0000000  -0.0000000  -0.0000000  -0.0000000  -0.0000000  -0.0000000  -0.0000000  -0.0000000  -0.0000000  -0.0000000
 NQMom=    0.0000000   0.0000000   0.0000000   0.0000000   0.0000000   2.0440000   0.0000000   0.0000000   0.0000000   0.0000000
 NMagM=    2.7928460   0.0000000   0.0000000   0.0000000   2.7928460   0.4037610   2.7928460   0.0000000   2.7928460   0.0000000
 AtZNuc=   1.0000000  16.0000000   6.0000000   8.0000000   1.0000000   7.0000000   1.0000000   6.0000000   1.0000000   6.0000000

  Atom        91          92          93          94          95          96          97          98          99         100
 IAtWgt=           1           1          12           1           1          12           1           1          12           1
 AtmWgt=   1.0078250   1.0078250  12.0000000   1.0078250   1.0078250  12.0000000   1.0078250   1.0078250  12.0000000   1.0078250
 NucSpn=           1           1           0           1           1           0           1           1           0           1
 AtZEff=  -0.0000000  -0.0000000  -0.0000000  -0.0000000  -0.0000000  -0.0000000  -0.0000000  -0.0000000  -0.0000000  -0.0000000
 NQMom=    0.0000000   0.0000000   0.0000000   0.0000000   0.0000000   0.0000000   0.0000000   0.0000000   0.0000000   0.0000000
 NMagM=    2.7928460   2.7928460   0.0000000   2.7928460   2.7928460   0.0000000   2.7928460   2.7928460   0.0000000   2.7928460
 AtZNuc=   1.0000000   1.0000000   6.0000000   1.0000000   1.0000000   6.0000000   1.0000000   1.0000000   6.0000000   1.0000000

  Atom       101         102         103         104         105         106         107         108         109         110
 IAtWgt=           1          14           1           1           1          12          16          14           1          12
 AtmWgt=   1.0078250  14.0030740   1.0078250   1.0078250   1.0078250  12.0000000  15.9949146  14.0030740   1.0078250  12.0000000
 NucSpn=           1           2           1           1           1           0           0           2           1           0
 AtZEff=  -0.0000000  -0.0000000  -0.0000000  -0.0000000  -0.0000000  -0.0000000  -0.0000000  -0.0000000  -0.0000000  -0.0000000
 NQMom=    0.0000000   2.0440000   0.0000000   0.0000000   0.0000000   0.0000000   0.0000000   2.0440000   0.0000000   0.0000000
 NMagM=    2.7928460   0.4037610   2.7928460   2.7928460   2.7928460   0.0000000   0.0000000   0.4037610   2.7928460   0.0000000
 AtZNuc=   1.0000000   7.0000000   1.0000000   1.0000000   1.0000000   6.0000000   8.0000000   7.0000000   1.0000000   6.0000000

  Atom       111         112         113         114         115         116         117         118         119         120
 IAtWgt=           1          12           1          12           1           1           1          12           1           1
 AtmWgt=   1.0078250  12.0000000   1.0078250  12.0000000   1.0078250   1.0078250   1.0078250  12.0000000   1.0078250   1.0078250
 NucSpn=           1           0           1           0           1           1           1           0           1           1
 AtZEff=  -0.0000000  -0.0000000  -0.0000000  -0.0000000  -0.0000000  -0.0000000  -0.0000000  -0.0000000  -0.0000000  -0.0000000
 NQMom=    0.0000000   0.0000000   0.0000000   0.0000000   0.0000000   0.0000000   0.0000000   0.0000000   0.0000000   0.0000000
 NMagM=    2.7928460   0.0000000   2.7928460   0.0000000   2.7928460   2.7928460   2.7928460   0.0000000   2.7928460   2.7928460
 AtZNuc=   1.0000000   6.0000000   1.0000000   6.0000000   1.0000000   1.0000000   1.0000000   6.0000000   1.0000000   1.0000000

  Atom       121         122         123         124         125         126         127         128         129         130
 IAtWgt=          12           1           1           1          12          16          14           1          12           1
 AtmWgt=  12.0000000   1.0078250   1.0078250   1.0078250  12.0000000  15.9949146  14.0030740   1.0078250  12.0000000   1.0078250
 NucSpn=           0           1           1           1           0           0           2           1           0           1
 AtZEff=  -0.0000000  -0.0000000  -0.0000000  -0.0000000  -0.0000000  -0.0000000  -0.0000000  -0.0000000  -0.0000000  -0.0000000
 NQMom=    0.0000000   0.0000000   0.0000000   0.0000000   0.0000000   0.0000000   2.0440000   0.0000000   0.0000000   0.0000000
 NMagM=    0.0000000   2.7928460   2.7928460   2.7928460   0.0000000   0.0000000   0.4037610   2.7928460   0.0000000   2.7928460
 AtZNuc=   6.0000000   1.0000000   1.0000000   1.0000000   6.0000000   8.0000000   7.0000000   1.0000000   6.0000000   1.0000000

  Atom       131         132         133         134         135         136         137         138         139         140
 IAtWgt=          12           1           1          32          12          16           1          14           1          12
 AtmWgt=  12.0000000   1.0078250   1.0078250  31.9720718  12.0000000  15.9949146   1.0078250  14.0030740   1.0078250  12.0000000
 NucSpn=           0           1           1           0           0           0           1           2           1           0
 AtZEff=  -0.0000000  -0.0000000  -0.0000000  -0.0000000  -0.0000000  -0.0000000  -0.0000000  -0.0000000  -0.0000000  -0.0000000
 NQMom=    0.0000000   0.0000000   0.0000000   0.0000000   0.0000000   0.0000000   0.0000000   2.0440000   0.0000000   0.0000000
 NMagM=    0.0000000   2.7928460   2.7928460   0.0000000   0.0000000   0.0000000   2.7928460   0.4037610   2.7928460   0.0000000
 AtZNuc=   6.0000000   1.0000000   1.0000000  16.0000000   6.0000000   8.0000000   1.0000000   7.0000000   1.0000000   6.0000000

  Atom       141         142         143         144         145         146         147         148         149         150
 IAtWgt=           1           1          12          16          14           1          12           1          12           1
 AtmWgt=   1.0078250   1.0078250  12.0000000  15.9949146  14.0030740   1.0078250  12.0000000   1.0078250  12.0000000   1.0078250
 NucSpn=           1           1           0           0           2           1           0           1           0           1
 AtZEff=  -0.0000000  -0.0000000  -0.0000000  -0.0000000  -0.0000000  -0.0000000  -0.0000000  -0.0000000  -0.0000000  -0.0000000
 NQMom=    0.0000000   0.0000000   0.0000000   0.0000000   2.0440000   0.0000000   0.0000000   0.0000000   0.0000000   0.0000000
 NMagM=    2.7928460   2.7928460   0.0000000   0.0000000   0.4037610   2.7928460   0.0000000   2.7928460   0.0000000   2.7928460
 AtZNuc=   1.0000000   1.0000000   6.0000000   8.0000000   7.0000000   1.0000000   6.0000000   1.0000000   6.0000000   1.0000000

  Atom       151         152         153         154         155         156         157         158         159         160
 IAtWgt=           1          12          12           1          12           1          12          16           1          12
 AtmWgt=   1.0078250  12.0000000  12.0000000   1.0078250  12.0000000   1.0078250  12.0000000  15.9949146   1.0078250  12.0000000
 NucSpn=           1           0           0           1           0           1           0           0           1           0
 AtZEff=  -0.0000000  -0.0000000  -0.0000000  -0.0000000  -0.0000000  -0.0000000  -0.0000000  -0.0000000  -0.0000000  -0.0000000
 NQMom=    0.0000000   0.0000000   0.0000000   0.0000000   0.0000000   0.0000000   0.0000000   0.0000000   0.0000000   0.0000000
 NMagM=    2.7928460   0.0000000   0.0000000   2.7928460   0.0000000   2.7928460   0.0000000   0.0000000   2.7928460   0.0000000
 AtZNuc=   1.0000000   6.0000000   6.0000000   1.0000000   6.0000000   1.0000000   6.0000000   8.0000000   1.0000000   6.0000000

  Atom       161         162         163         164         165
 IAtWgt=           1          12           1          12          16
 AtmWgt=   1.0078250  12.0000000   1.0078250  12.0000000  15.9949146
 NucSpn=           1           0           1           0           0
 AtZEff=  -0.0000000  -0.0000000  -0.0000000  -0.0000000  -0.0000000
 NQMom=    0.0000000   0.0000000   0.0000000   0.0000000   0.0000000
 NMagM=    2.7928460   0.0000000   2.7928460   0.0000000   0.0000000
 AtZNuc=   1.0000000   6.0000000   1.0000000   6.0000000   8.0000000
 Leave Link  101 at Fri Feb 23 14:50:47 2018, MaxMem=   104857600 cpu:               4.0 elap:               0.3
 (Enter /software/gaussian/g16-A.03/avx/g16/l202.exe)
 Stoichiometry    C54H85N13O11S2
 Framework group  C1[X(C54H85N13O11S2)]
 Deg. of freedom   489
 Full point group                 C1      NOp   1
 Largest Abelian subgroup         C1      NOp   1
 Largest concise Abelian subgroup C1      NOp   1
                         Standard orientation:                         
 ---------------------------------------------------------------------
 Center     Atomic      Atomic             Coordinates (Angstroms)
 Number     Number       Type             X           Y           Z
 ---------------------------------------------------------------------
      1          7           0        7.321536   -3.187227   -1.698605
      2          1           0        7.584189   -4.116276   -1.994936
      3          1           0        6.759590   -3.232636   -0.860767
      4          1           0        6.896682   -2.538554   -2.345755
      5          6           0        8.601921   -2.510668   -1.321601
      6          1           0        9.232501   -3.204342   -0.766004
      7          6           0        9.411714   -2.318865   -2.568464
      8          1           0        8.705286   -1.919506   -3.295984
      9          1           0       10.215385   -1.598144   -2.415414
     10          1           0        9.798433   -3.239192   -3.004997
     11          6           0        8.289838   -1.238065   -0.539744
     12          8           0        9.070351   -0.855471    0.308641
     13          7           0        7.171926   -0.576689   -0.793389
     14          1           0        6.612076   -1.059514   -1.481884
     15          6           0        6.528559    0.544344   -0.088389
     16          1           0        6.690093    0.339711    0.969392
     17          6           0        7.120841    1.901377   -0.626653
     18          1           0        6.993157    2.028967   -1.702652
     19          1           0        6.577859    2.651275   -0.051304
     20          6           0        8.660002    2.121671   -0.356605
     21          1           0        8.761475    2.127081    0.728671
     22          1           0        9.250561    1.347824   -0.846827
     23          6           0        9.158600    3.351888   -0.997217
     24          1           0        8.888065    3.294150   -2.050886
     25          1           0        8.685833    4.143745   -0.416459
     26          6           0       10.637569    3.590524   -0.919845
     27          1           0       10.990650    3.408639    0.095064
     28          1           0       11.112144    2.816930   -1.525176
     29          7           0       11.002836    4.911239   -1.553660
     30          1           0       10.379264    5.680848   -1.359198
     31          1           0       11.916327    5.184585   -1.221685
     32          1           0       11.184920    4.789972   -2.539986
     33          6           0        5.026028    0.578978   -0.308193
     34          8           0        4.556018    0.553013   -1.508134
     35          7           0        4.310568    0.713835    0.767992
     36          1           0        4.788752    0.739721    1.656685
     37          6           0        2.885076    0.596901    0.834349
     38          1           0        2.599275    0.697917    1.881691
     39          6           0        2.115380    1.774890    0.139940
     40          1           0        2.553774    1.882505   -0.851397
     41          1           0        1.095513    1.430505   -0.027841
     42          6           0        2.259994    3.052901    0.906286
     43          6           0        3.341047    3.551086    1.547079
     44          1           0        4.292561    3.044326    1.619319
     45          7           0        3.011814    4.762767    1.985482
     46          1           0        3.721477    5.442098    2.220316
     47          6           0        1.747142    5.177524    1.668877
     48          6           0        0.922186    6.295623    1.868527
     49          1           0        1.231493    7.197753    2.374886
     50          6           0       -0.445478    6.358206    1.401126
     51          1           0       -0.988860    7.284554    1.513534
     52          6           0       -0.990360    5.186107    0.828162
     53          1           0       -2.032431    5.109186    0.556933
     54          6           0       -0.163175    4.073631    0.568012
     55          1           0       -0.571068    3.279371   -0.039664
     56          6           0        1.186255    4.051331    0.996439
     57          6           0        2.534017   -0.844300    0.493044
     58          8           0        2.318257   -1.570509    1.442573
     59          7           0        2.772504   -1.267612   -0.720280
     60          1           0        3.127914   -0.583624   -1.372081
     61          6           0        2.668874   -2.682842   -1.203385
     62          1           0        2.756905   -2.826159   -2.279505
     63          6           0        3.819029   -3.507589   -0.682545
     64          1           0        3.525323   -3.787497    0.328622
     65          6           0        3.948156   -4.732745   -1.534902
     66          1           0        3.115433   -5.429116   -1.436272
     67          1           0        4.223885   -4.569484   -2.576417
     68          1           0        4.797467   -5.252282   -1.090362
     69          6           0        5.191693   -2.854402   -0.520943
     70          1           0        5.083551   -1.925403    0.040290
     71          1           0        5.686548   -3.529068    0.177212
     72          1           0        5.727750   -2.689796   -1.455774
     73          6           0        1.271226   -3.381029   -0.906261
     74          8           0        1.298878   -4.308098   -0.087825
     75          7           0        0.173637   -2.979472   -1.472919
     76          1           0        0.245037   -2.117578   -1.994576
     77          6           0       -1.106757   -3.641940   -1.431438
     78          1           0       -1.644847   -3.188240   -2.264396
     79          6           0       -0.912515   -5.148219   -1.661574
     80          1           0        0.110596   -5.486980   -1.498707
     81          1           0       -1.631601   -5.630381   -0.998701
     82         16           0       -1.438812   -5.538659   -3.357623
     83          6           0       -1.842933   -3.418450   -0.044193
     84          8           0       -2.601977   -4.271350    0.398602
     85          1           0       -2.716206   -5.110386   -3.545879
     86          7           0       -1.676405   -2.270554    0.607307
     87          1           0       -1.140587   -1.521294    0.192482
     88          6           0       -2.380509   -2.002593    1.855304
     89          1           0       -3.137202   -2.784212    1.924607
     90          6           0       -1.371306   -2.185877    3.071409
     91          1           0       -0.541770   -1.500211    2.897093
     92          1           0       -1.970177   -1.832064    3.910651
     93          6           0       -0.750297   -3.584623    3.349837
     94          1           0       -1.608526   -4.226852    3.550225
     95          1           0       -0.318802   -3.985208    2.432739
     96          6           0        0.171100   -3.630072    4.567052
     97          1           0        1.163125   -3.260960    4.304778
     98          1           0       -0.207777   -2.930823    5.311283
     99          6           0        0.358341   -5.066167    4.988637
    100          1           0        1.187189   -5.263186    5.669246
    101          1           0       -0.600626   -5.452182    5.333461
    102          7           0        0.743414   -5.964183    3.881227
    103          1           0        0.708196   -6.955671    4.065706
    104          1           0        0.159128   -5.755618    3.083645
    105          1           0        1.658068   -5.780525    3.493233
    106          6           0       -2.961863   -0.629805    1.853302
    107          8           0       -3.707884   -0.298770    2.740691
    108          7           0       -2.745518    0.193115    0.859823
    109          1           0       -2.361553   -0.215892    0.019622
    110          6           0       -3.190483    1.620442    0.651205
    111          1           0       -3.908203    1.888848    1.425768
    112          6           0       -1.990841    2.512694    0.643080
    113          1           0       -1.313493    2.110173   -0.110104
    114          6           0       -2.226422    3.999589    0.315534
    115          1           0       -2.965034    4.399079    1.010755
    116          1           0       -1.276818    4.508009    0.483510
    117          1           0       -2.454591    4.195942   -0.732078
    118          6           0       -1.129809    2.502727    2.026559
    119          1           0       -0.680609    1.515077    2.136742
    120          1           0       -0.268945    3.152648    1.870442
    121          6           0       -1.839000    2.950857    3.276070
    122          1           0       -2.762676    2.418942    3.506947
    123          1           0       -1.136724    3.098552    4.096395
    124          1           0       -2.189121    3.970108    3.117539
    125          6           0       -3.985890    1.904840   -0.638869
    126          8           0       -3.658307    1.413880   -1.699259
    127          7           0       -4.881613    2.907811   -0.531525
    128          1           0       -5.072997    3.284776    0.384854
    129          6           0       -5.623418    3.436161   -1.669993
    130          1           0       -6.292486    4.224684   -1.323603
    131          6           0       -4.608601    3.989802   -2.620511
    132          1           0       -3.859671    3.210886   -2.766644
    133          1           0       -4.986229    4.023328   -3.642233
    134         16           0       -3.658496    5.445471   -2.107281
    135          6           0       -6.594544    2.381326   -2.359855
    136          8           0       -6.517668    2.155245   -3.581287
    137          1           0       -3.244400    5.285903   -0.822050
    138          7           0       -7.495452    1.686017   -1.669654
    139          1           0       -7.517595    1.893736   -0.681896
    140          6           0       -8.419436    0.678994   -2.223814
    141          1           0       -9.287062    0.606204   -1.568547
    142          1           0       -8.756425    0.912139   -3.234061
    143          6           0       -7.773044   -0.711862   -2.361310
    144          8           0       -8.368974   -1.524517   -3.036640
    145          7           0       -6.731595   -0.999907   -1.552196
    146          1           0       -6.413866   -0.192900   -1.034792
    147          6           0       -6.153552   -2.265071   -1.240703
    148          1           0       -6.143385   -2.961284   -2.079884
    149          6           0       -4.609412   -2.031637   -1.070260
    150          1           0       -4.080061   -2.983229   -1.028645
    151          1           0       -4.209143   -1.459032   -1.906423
    152          6           0       -4.372458   -1.049013    0.062153
    153          6           0       -4.715581    0.323350   -0.024377
    154          1           0       -5.342906    0.639400   -0.844773
    155          6           0       -4.483727    1.152717    1.111801
    156          1           0       -4.809780    2.180532    1.062682
    157          6           0       -3.907471    0.606355    2.273755
    158          8           0       -3.883358    1.327114    3.522890
    159          1           0       -4.164285    2.241521    3.433364
    160          6           0       -3.564642   -0.762700    2.292981
    161          1           0       -3.205617   -1.189668    3.217503
    162          6           0       -3.817477   -1.607007    1.203461
    163          1           0       -3.625045   -2.664940    1.303424
    164          6           0       -6.869166   -2.807442   -0.014015
    165          8           0       -7.126265   -2.079080    0.900653
 ---------------------------------------------------------------------
 Rotational constants (GHZ):           0.0315301           0.0154384           0.0125444
 Leave Link  202 at Fri Feb 23 14:50:47 2018, MaxMem=   104857600 cpu:               0.1 elap:               0.0
 (Enter /software/gaussian/g16-A.03/avx/g16/l301.exe)
 Standard basis: 6-31G(d) (6D, 7F)
 Ernie: Thresh=  0.10000D-02 Tol=  0.10000D-05 Strict=F.
 There are  1378 symmetry adapted cartesian basis functions of A   symmetry.
 There are  1378 symmetry adapted basis functions of A   symmetry.
  1378 basis functions,  2628 primitive gaussians,  1378 cartesian basis functions
   310 alpha electrons      310 beta electrons
       nuclear repulsion energy     16753.3255170398 Hartrees.
 IExCor=    0 DFT=F Ex=HF Corr=None ExCW=0 ScaHFX=  1.000000
 ScaDFX=  1.000000  1.000000  1.000000  1.000000 ScalE2=  1.000000  1.000000
 IRadAn=      5 IRanWt=     -1 IRanGd=            0 ICorTp=0 IEmpDi=  4
 NAtoms=  165 NActive=  165 NUniq=  165 SFac= 1.00D+00 NAtFMM=   60 NAOKFM=T Big=T
 Integral buffers will be    131072 words long.
 Raffenetti 1 integral format.
 Two-electron integral symmetry is turned on.
 Leave Link  301 at Fri Feb 23 14:50:47 2018, MaxMem=   104857600 cpu:               0.7 elap:               0.0
 (Enter /software/gaussian/g16-A.03/avx/g16/l302.exe)
 NPDir=0 NMtPBC=     1 NCelOv=     1 NCel=       1 NClECP=     1 NCelD=      1
         NCelK=      1 NCelE2=     1 NClLst=     1 CellRange=     0.0.
 One-electron integrals computed using PRISM.
 One-electron integral symmetry used in STVInt
 PrsmSu:  requested number of processors reduced to:  14 ShMem   1 Linda.
 NBasis=  1378 RedAO= T EigKep=  3.87D-05  NBF=  1378
 NBsUse=  1378 1.00D-06 EigRej= -1.00D+00 NBFU=  1378
 Leave Link  302 at Fri Feb 23 14:50:50 2018, MaxMem=   104857600 cpu:              51.3 elap:               3.2
 (Enter /software/gaussian/g16-A.03/avx/g16/l303.exe)
 DipDrv:  MaxL=1.
 Leave Link  303 at Fri Feb 23 14:50:51 2018, MaxMem=   104857600 cpu:               4.6 elap:               0.3
 (Enter /software/gaussian/g16-A.03/avx/g16/l401.exe)
 ExpMin= 1.17D-01 ExpMax= 2.19D+04 ExpMxC= 3.30D+03 IAcc=3 IRadAn=         5 AccDes= 0.00D+00
 Harris functional with IExCor=  205 and IRadAn=       5 diagonalized for initial guess.
 HarFok:  IExCor=  205 AccDes= 0.00D+00 IRadAn=         5 IDoV= 1 UseB2=F ITyADJ=14
 ICtDFT=  3500011 ScaDFX=  1.000000  1.000000  1.000000  1.000000
 FoFCou: FMM=F IPFlag=           0 FMFlag=      100000 FMFlg1=        2001
         NFxFlg=           0 DoJE=T BraDBF=F KetDBF=T FulRan=T
         wScrn=  0.000000 ICntrl=       500 IOpCl=  0 I1Cent=   200000004 NGrid=           0
         NMat0=    1 NMatS0=      1 NMatT0=    0 NMatD0=    1 NMtDS0=    0 NMtDT0=    0
 Petite list used in FoFCou.
 Harris En= -4418.88963507046    
 JPrj=0 DoOrth=F DoCkMO=F.
 Leave Link  401 at Fri Feb 23 14:51:04 2018, MaxMem=   104857600 cpu:             210.1 elap:              13.1
 (Enter /software/gaussian/g16-A.03/avx/g16/l502.exe)
 Integral symmetry usage will be decided dynamically.
 Closed shell SCF:
 Using DIIS extrapolation, IDIIS=  1040.
 NGot=   104857600 LenX=   101021699 LenY=    99121437
 Requested convergence on RMS density matrix=1.00D-08 within 128 cycles.
 Requested convergence on MAX density matrix=1.00D-06.
 Requested convergence on             energy=1.00D-06.
 No special actions if energy rises.
 Fock matrices will be formed incrementally for  20 cycles.
 Integral accuracy reduced to 1.0D-05 until final iterations.

 Cycle   1  Pass 0  IDiag  1:
 FoFJK:  IHMeth= 1 ICntrl=       0 DoSepK=F KAlg= 0 I1Cent=           0 FoldK=F
 IRaf= 650000000 NMat=       1 IRICut=       1 DoRegI=T DoRafI=F ISym2E= 0 IDoP0=0 IntGTp=1.
 FoFCou: FMM=T IPFlag=           0 FMFlag=      100000 FMFlg1=        2001
         NFxFlg=           0 DoJE=F BraDBF=F KetDBF=F FulRan=T
         wScrn=  0.000000 ICntrl=         0 IOpCl=  0 I1Cent=           0 NGrid=           0
         NMat0=    1 NMatS0=      1 NMatT0=    0 NMatD0=    1 NMtDS0=    0 NMtDT0=    0
 Symmetry not used in FoFCou.
 FMM levels:  10  Number of levels for PrismC:   9
 E= -4406.81661890012    
 DIIS: error= 5.66D-02 at cycle   1 NSaved=   1.
 NSaved= 1 IEnMin= 1 EnMin= -4406.81661890012     IErMin= 1 ErrMin= 5.66D-02
 ErrMax= 5.66D-02  0.00D+00 EMaxC= 1.00D-01 BMatC= 8.19D+00 BMatP= 8.19D+00
 IDIUse=3 WtCom= 4.34D-01 WtEn= 5.66D-01
 Coeff-Com:  0.100D+01
 Coeff-En:   0.100D+01
 Coeff:      0.100D+01
 Gap=     0.356 Goal=   None    Shift=    0.000
 GapD=    0.356 DampG=1.000 DampE=0.500 DampFc=0.5000 IDamp=-1.
 Damping current iteration by 5.00D-01
 RMSDP=2.37D-02 MaxDP=1.05D+01              OVMax= 9.99D-01

 Cycle   2  Pass 0  IDiag  1:
 RMSU=  1.02D-02    CP:  7.09D-01
 E= -4389.04798737597     Delta-E=       17.768631524159 Rises=F Damp=T
 DIIS: error= 3.58D-02 at cycle   2 NSaved=   2.
 NSaved= 2 IEnMin= 1 EnMin= -4406.81661890012     IErMin= 2 ErrMin= 3.58D-02
 ErrMax= 3.58D-02  0.00D+00 EMaxC= 1.00D-01 BMatC= 6.43D+00 BMatP= 8.19D+00
 IDIUse=3 WtCom= 6.42D-01 WtEn= 3.58D-01
 Coeff-Com:  0.437D+00 0.563D+00
 Coeff-En:   0.845D+00 0.155D+00
 Coeff:      0.583D+00 0.417D+00
 Gap=    -0.771 Goal=   None    Shift=    0.000
 RMSDP=3.22D-02 MaxDP=1.86D+01 DE= 1.78D+01 OVMax= 9.87D-01

 Cycle   3  Pass 0  IDiag  1:
 RMSU=  2.36D-02    CP:  1.62D+00 -1.39D-01
 E= -4370.34097952660     Delta-E=       18.707007849367 Rises=F Damp=F
 DIIS: error= 5.66D-02 at cycle   3 NSaved=   3.
 NSaved= 3 IEnMin= 1 EnMin= -4406.81661890012     IErMin= 2 ErrMin= 3.58D-02
 ErrMax= 5.66D-02  0.00D+00 EMaxC= 1.00D-01 BMatC= 1.62D+01 BMatP= 6.43D+00
 IDIUse=2 WtCom= 0.00D+00 WtEn= 1.00D+00
 Rare condition: small coef for last iteration:  0.000D+00
 Coeff-En:   0.908D+00 0.553D-01 0.363D-01
 Coeff:      0.908D+00 0.553D-01 0.363D-01
 Gap=    -1.180 Goal=   None    Shift=    0.000
 RMSDP=3.83D-02 MaxDP=2.31D+01 DE= 1.87D+01 OVMax= 1.00D+00

 Problem detected with inexpensive integrals.
 Switching to full accuracy and repeating last cycle.
 Cycle   4  Pass 1  IDiag  1:
 E= -4370.34094190738     Delta-E=        0.000037619215 Rises=F Damp=F
 DIIS: error= 5.66D-02 at cycle   1 NSaved=   1.
 NSaved= 1 IEnMin= 1 EnMin= -4370.34094190738     IErMin= 1 ErrMin= 5.66D-02
 ErrMax= 5.66D-02  0.00D+00 EMaxC= 1.00D-01 BMatC= 1.62D+01 BMatP= 1.62D+01
 IDIUse=3 WtCom= 4.34D-01 WtEn= 5.66D-01
 Coeff-Com:  0.100D+01
 Coeff-En:   0.100D+01
 Coeff:      0.100D+01
 Gap=    -4.424 Goal=   None    Shift=    0.000
 GapD=   -4.424 DampG=0.250 DampE=0.500 DampFc=0.2500 IDamp=-1.
 Damping current iteration by 2.50D-01
 RMSDP=2.31D-01 MaxDP=6.90D+01 DE= 3.76D-05 OVMax= 9.85D-01

 Cycle   5  Pass 1  IDiag  1:
 RMSU=  5.69D-02    CP:  7.66D-01
 E= -4127.11083590834     Delta-E=      243.230105999042 Rises=F Damp=T
 DIIS: error= 1.27D-01 at cycle   2 NSaved=   2.
 NSaved= 2 IEnMin= 1 EnMin= -4370.34094190738     IErMin= 1 ErrMin= 5.66D-02
 ErrMax= 1.27D-01  0.00D+00 EMaxC= 1.00D-01 BMatC= 3.00D+01 BMatP= 1.62D+01
 IDIUse=2 WtCom= 0.00D+00 WtEn= 1.00D+00
 Coeff-En:   0.829D+00 0.171D+00
 Coeff:      0.829D+00 0.171D+00
 Gap=     0.277 Goal=   None    Shift=    0.000
 RMSDP=4.76D-02 MaxDP=1.96D+01 DE= 2.43D+02 OVMax= 1.00D+00

 Cycle   6  Pass 1  IDiag  1:
 RMSU=  3.42D-02    CP:  8.48D-02  6.82D-01
 E= -3271.19138103658     Delta-E=      855.919454871761 Rises=F Damp=F
 DIIS: error= 1.79D-01 at cycle   3 NSaved=   3.
 NSaved= 3 IEnMin= 1 EnMin= -4370.34094190738     IErMin= 1 ErrMin= 5.66D-02
 ErrMax= 1.79D-01  0.00D+00 EMaxC= 1.00D-01 BMatC= 3.10D+02 BMatP= 1.62D+01
 IDIUse=2 WtCom= 0.00D+00 WtEn= 1.00D+00
 Coeff-En:   0.876D+00 0.000D+00 0.124D+00
 Coeff:      0.876D+00 0.000D+00 0.124D+00
 Gap=    -0.741 Goal=   None    Shift=    0.000
 RMSDP=4.44D-02 MaxDP=8.46D+00 DE= 8.56D+02 OVMax= 9.95D-01

 Cycle   7  Pass 1  IDiag  1:
 RMSU=  1.93D-02    CP:  1.73D-01  1.80D-01  1.89D-01
 E= -4269.85083323953     Delta-E=     -998.659452202952 Rises=F Damp=F
 DIIS: error= 1.00D-01 at cycle   4 NSaved=   4.
 NSaved= 4 IEnMin= 1 EnMin= -4370.34094190738     IErMin= 1 ErrMin= 5.66D-02
 ErrMax= 1.00D-01  0.00D+00 EMaxC= 1.00D-01 BMatC= 5.73D+01 BMatP= 1.62D+01
 IDIUse=2 WtCom= 0.00D+00 WtEn= 1.00D+00
 Coeff-En:   0.673D+00 0.000D+00 0.000D+00 0.327D+00
 Coeff:      0.673D+00 0.000D+00 0.000D+00 0.327D+00
 Gap=     0.166 Goal=   None    Shift=    0.000
 RMSDP=2.12D-02 MaxDP=7.90D+00 DE=-9.99D+02 OVMax= 9.93D-01

 Cycle   8  Pass 1  IDiag  1:
 RMSU=  1.07D-02    CP:  1.96D-01  1.67D-02  9.67D-02  2.03D-01
 E= -4403.63562890157     Delta-E=     -133.784795662039 Rises=F Damp=F
 DIIS: error= 3.41D-02 at cycle   5 NSaved=   5.
 NSaved= 5 IEnMin= 5 EnMin= -4403.63562890157     IErMin= 5 ErrMin= 3.41D-02
 ErrMax= 3.41D-02  0.00D+00 EMaxC= 1.00D-01 BMatC= 3.52D+00 BMatP= 1.62D+01
 IDIUse=3 WtCom= 6.59D-01 WtEn= 3.41D-01
 Coeff-Com:  0.305D+00 0.107D+00-0.927D-02 0.237D-01 0.573D+00
 Coeff-En:   0.246D+00 0.000D+00 0.000D+00 0.000D+00 0.754D+00
 Coeff:      0.285D+00 0.705D-01-0.611D-02 0.156D-01 0.635D+00
 Gap=     1.180 Goal=   None    Shift=    0.000
 RMSDP=2.18D-02 MaxDP=1.24D+01 DE=-1.34D+02 OVMax= 9.93D-01

 Cycle   9  Pass 1  IDiag  1:
 RMSU=  9.61D-03    CP:  6.34D-01  4.53D-03  2.86D-02  1.05D-01  3.14D-01
 E= -4387.95423183939     Delta-E=       15.681397062177 Rises=F Damp=F
 DIIS: error= 4.57D-02 at cycle   6 NSaved=   6.
 NSaved= 6 IEnMin= 5 EnMin= -4403.63562890157     IErMin= 5 ErrMin= 3.41D-02
 ErrMax= 4.57D-02  0.00D+00 EMaxC= 1.00D-01 BMatC= 7.65D+00 BMatP= 3.52D+00
 IDIUse=2 WtCom= 0.00D+00 WtEn= 1.00D+00
 Coeff-En:   0.000D+00 0.000D+00 0.000D+00 0.000D+00 0.670D+00 0.330D+00
 Coeff:      0.000D+00 0.000D+00 0.000D+00 0.000D+00 0.670D+00 0.330D+00
 Gap=     0.382 Goal=   None    Shift=    0.000
 RMSDP=1.41D-02 MaxDP=7.28D+00 DE= 1.57D+01 OVMax= 9.92D-01

 Cycle  10  Pass 1  IDiag  1:
 RMSU=  6.54D-03    CP:  3.58D-01  7.32D-03  4.63D-02  1.64D-01  5.18D-01
                    CP:  5.09D-01
 E= -4409.38768200733     Delta-E=      -21.433450167933 Rises=F Damp=F
 DIIS: error= 2.06D-02 at cycle   7 NSaved=   7.
 NSaved= 7 IEnMin= 7 EnMin= -4409.38768200733     IErMin= 7 ErrMin= 2.06D-02
 ErrMax= 2.06D-02  0.00D+00 EMaxC= 1.00D-01 BMatC= 2.25D+00 BMatP= 3.52D+00
 IDIUse=3 WtCom= 7.94D-01 WtEn= 2.06D-01
 Coeff-Com:  0.492D-01 0.380D-01-0.468D-02 0.109D-01 0.430D+00 0.143D+00
 Coeff-Com:  0.333D+00
 Coeff-En:   0.000D+00 0.000D+00 0.000D+00 0.000D+00 0.300D+00 0.000D+00
 Coeff-En:   0.700D+00
 Coeff:      0.391D-01 0.301D-01-0.372D-02 0.862D-02 0.404D+00 0.114D+00
 Coeff:      0.409D+00
 Gap=    -0.115 Goal=   None    Shift=    0.000
 RMSDP=9.11D-03 MaxDP=4.08D+00 DE=-2.14D+01 OVMax= 9.03D-01

 Cycle  11  Pass 1  IDiag  1:
 RMSU=  6.35D-03    CP:  2.39D-01  7.89D-03  5.44D-02  1.76D-01  5.54D-01
                    CP:  4.02D-01  3.49D-01
 E= -4411.13082541718     Delta-E=       -1.743143409851 Rises=F Damp=F
 DIIS: error= 1.04D-02 at cycle   8 NSaved=   8.
 NSaved= 8 IEnMin= 8 EnMin= -4411.13082541718     IErMin= 8 ErrMin= 1.04D-02
 ErrMax= 1.04D-02  0.00D+00 EMaxC= 1.00D-01 BMatC= 7.89D-01 BMatP= 2.25D+00
 IDIUse=3 WtCom= 8.96D-01 WtEn= 1.04D-01
 EnCoef did     5 forward-backward iterations
 Coeff-Com:  0.592D-02 0.282D-01 0.134D-03 0.770D-02 0.178D+00 0.247D-01
 Coeff-Com:  0.291D+00 0.465D+00
 Coeff-En:   0.000D+00 0.000D+00 0.000D+00 0.000D+00 0.105D+00 0.000D+00
 Coeff-En:   0.274D+00 0.621D+00
 Coeff:      0.531D-02 0.252D-01 0.120D-03 0.690D-02 0.170D+00 0.221D-01
 Coeff:      0.289D+00 0.481D+00
 Gap=     0.050 Goal=   None    Shift=    0.000
 RMSDP=5.45D-03 MaxDP=1.68D+00 DE=-1.74D+00 OVMax= 7.27D-01

 Cycle  12  Pass 1  IDiag  1:
 RMSU=  3.00D-03    CP:  2.69D-01  7.75D-03  5.33D-02  1.79D-01  5.68D-01
                    CP:  3.55D-01  7.16D-01  4.27D-01
 E= -4411.73144968898     Delta-E=       -0.600624271799 Rises=F Damp=F
 DIIS: error= 7.06D-03 at cycle   9 NSaved=   9.
 NSaved= 9 IEnMin= 9 EnMin= -4411.73144968898     IErMin= 9 ErrMin= 7.06D-03
 ErrMax= 7.06D-03  0.00D+00 EMaxC= 1.00D-01 BMatC= 3.61D-01 BMatP= 7.89D-01
 IDIUse=3 WtCom= 9.29D-01 WtEn= 7.06D-02
 EnCoef did     2 forward-backward iterations
 Coeff-Com:  0.613D-02 0.313D-01 0.314D-03 0.765D-02 0.777D-01-0.153D-01
 Coeff-Com:  0.572D-01 0.322D+00 0.513D+00
 Coeff-En:   0.000D+00 0.000D+00 0.000D+00 0.000D+00 0.669D-01 0.000D+00
 Coeff-En:   0.000D+00 0.156D+00 0.777D+00
 Coeff:      0.570D-02 0.291D-01 0.292D-03 0.711D-02 0.770D-01-0.142D-01
 Coeff:      0.532D-01 0.310D+00 0.532D+00
 Gap=     0.105 Goal=   None    Shift=    0.000
 RMSDP=1.35D-03 MaxDP=3.65D-01 DE=-6.01D-01 OVMax= 1.94D-01

 Cycle  13  Pass 1  IDiag  1:
 RMSU=  1.02D-03    CP:  2.59D-01  7.82D-03  5.36D-02  1.80D-01  5.70D-01
                    CP:  3.45D-01  6.53D-01  5.24D-01  9.25D-01
 E= -4411.97231411303     Delta-E=       -0.240864424057 Rises=F Damp=F
 DIIS: error= 4.90D-03 at cycle  10 NSaved=  10.
 NSaved=10 IEnMin=10 EnMin= -4411.97231411303     IErMin=10 ErrMin= 4.90D-03
 ErrMax= 4.90D-03  0.00D+00 EMaxC= 1.00D-01 BMatC= 1.43D-01 BMatP= 3.61D-01
 IDIUse=3 WtCom= 9.51D-01 WtEn= 4.90D-02
 Coeff-Com: -0.676D-02 0.246D-01 0.294D-03 0.804D-02 0.520D-01-0.224D-01
 Coeff-Com: -0.294D-02 0.916D-01-0.528D-01 0.908D+00
 Coeff-En:   0.000D+00 0.000D+00 0.000D+00 0.000D+00 0.478D-01 0.000D+00
 Coeff-En:   0.000D+00 0.000D+00 0.000D+00 0.952D+00
 Coeff:     -0.643D-02 0.234D-01 0.280D-03 0.765D-02 0.518D-01-0.213D-01
 Coeff:     -0.280D-02 0.871D-01-0.502D-01 0.911D+00
 Gap=     0.103 Goal=   None    Shift=    0.000
 RMSDP=5.88D-04 MaxDP=2.65D-01 DE=-2.41D-01 OVMax= 6.93D-02

 Cycle  14  Pass 1  IDiag  1:
 RMSU=  4.72D-04    CP:  2.52D-01  7.88D-03  5.40D-02  1.81D-01  5.72D-01
                    CP:  3.38D-01  6.45D-01  5.20D-01  9.10D-01  1.17D+00
 E= -4412.03289986194     Delta-E=       -0.060585748906 Rises=F Damp=F
 DIIS: error= 4.27D-03 at cycle  11 NSaved=  11.
 NSaved=11 IEnMin=11 EnMin= -4412.03289986194     IErMin=11 ErrMin= 4.27D-03
 ErrMax= 4.27D-03  0.00D+00 EMaxC= 1.00D-01 BMatC= 1.04D-01 BMatP= 1.43D-01
 IDIUse=3 WtCom= 9.57D-01 WtEn= 4.27D-02
 Coeff-Com: -0.143D-01 0.165D-01 0.254D-03 0.683D-02 0.473D-01-0.141D-01
 Coeff-Com:  0.105D-02 0.766D-02-0.218D+00-0.496D-01 0.122D+01
 Coeff-En:   0.000D+00 0.000D+00 0.000D+00 0.000D+00 0.326D-01 0.000D+00
 Coeff-En:   0.000D+00 0.000D+00 0.000D+00 0.000D+00 0.967D+00
 Coeff:     -0.137D-01 0.158D-01 0.244D-03 0.654D-02 0.467D-01-0.135D-01
 Coeff:      0.101D-02 0.734D-02-0.209D+00-0.475D-01 0.121D+01
 Gap=     0.091 Goal=   None    Shift=    0.000
 RMSDP=4.84D-04 MaxDP=8.65D-02 DE=-6.06D-02 OVMax= 7.48D-02

 Cycle  15  Pass 1  IDiag  1:
 RMSU=  3.80D-04    CP:  2.53D-01  7.84D-03  5.41D-02  1.81D-01  5.73D-01
                    CP:  3.43D-01  6.40D-01  5.12D-01  9.14D-01  1.36D+00
                    CP:  1.43D+00
 E= -4412.09035073506     Delta-E=       -0.057450873115 Rises=F Damp=F
 DIIS: error= 3.57D-03 at cycle  12 NSaved=  12.
 NSaved=12 IEnMin=12 EnMin= -4412.09035073506     IErMin=12 ErrMin= 3.57D-03
 ErrMax= 3.57D-03  0.00D+00 EMaxC= 1.00D-01 BMatC= 6.86D-02 BMatP= 1.04D-01
 IDIUse=3 WtCom= 9.64D-01 WtEn= 3.57D-02
 Coeff-Com: -0.135D-01 0.759D-02 0.511D-04 0.460D-02 0.292D-01-0.129D-01
 Coeff-Com:  0.100D-01 0.122D-01 0.956D-02-0.749D+00 0.166D-01 0.169D+01
 Coeff-En:   0.000D+00 0.000D+00 0.000D+00 0.000D+00 0.146D-01 0.000D+00
 Coeff-En:   0.000D+00 0.000D+00 0.000D+00 0.000D+00 0.000D+00 0.985D+00
 Coeff:     -0.130D-01 0.732D-02 0.493D-04 0.444D-02 0.287D-01-0.125D-01
 Coeff:      0.968D-02 0.118D-01 0.922D-02-0.722D+00 0.161D-01 0.166D+01
 Gap=     0.064 Goal=   None    Shift=    0.000
 RMSDP=6.03D-04 MaxDP=8.05D-02 DE=-5.75D-02 OVMax= 9.17D-02

 Cycle  16  Pass 1  IDiag  1:
 RMSU=  3.11D-04    CP:  2.51D-01  7.90D-03  5.46D-02  1.83D-01  5.77D-01
                    CP:  3.46D-01  6.28D-01  5.08D-01  9.26D-01  1.46D+00
                    CP:  2.19D+00  1.89D+00
 E= -4412.15829511133     Delta-E=       -0.067944376271 Rises=F Damp=F
 DIIS: error= 2.11D-03 at cycle  13 NSaved=  13.
 NSaved=13 IEnMin=13 EnMin= -4412.15829511133     IErMin=13 ErrMin= 2.11D-03
 ErrMax= 2.11D-03  0.00D+00 EMaxC= 1.00D-01 BMatC= 2.41D-02 BMatP= 6.86D-02
 IDIUse=3 WtCom= 9.79D-01 WtEn= 2.11D-02
 Coeff-Com: -0.469D-02 0.241D-02 0.794D-04 0.107D-02 0.962D-02-0.523D-02
 Coeff-Com:  0.667D-02 0.243D-01 0.110D+00-0.315D-01-0.817D+00 0.137D+00
 Coeff-Com:  0.157D+01
 Coeff-En:   0.000D+00 0.000D+00 0.000D+00 0.000D+00 0.000D+00 0.000D+00
 Coeff-En:   0.000D+00 0.000D+00 0.000D+00 0.000D+00 0.000D+00 0.000D+00
 Coeff-En:   0.100D+01
 Coeff:     -0.459D-02 0.236D-02 0.777D-04 0.105D-02 0.942D-02-0.512D-02
 Coeff:      0.653D-02 0.238D-01 0.108D+00-0.308D-01-0.800D+00 0.134D+00
 Coeff:      0.156D+01
 Gap=    -0.072 Goal=   None    Shift=    0.000
