 Entering Gaussian System, Link 0=g16
 Input=tests/amber_gpgg/amber_run/opt_gaussian_temp_mol.gin
 Output=tests/amber_gpgg/amber_run/opt_gaussian_temp_mol.log
 Initial command:
 /software/gaussian/g16-A.03/avx/g16/l1.exe "/scratch-store/scratch/jvillard/GAcode/Gau-26130.inp" -scrdir="/scratch-store/scratch/jvillard/GAcode/"
 Entering Link 1 = /software/gaussian/g16-A.03/avx/g16/l1.exe PID=     26132.
  
 Copyright (c) 1988,1990,1992,1993,1995,1998,2003,2009,2016,
            Gaussian, Inc.  All Rights Reserved.
  
 This is part of the Gaussian(R) 16 program.  It is based on
 the Gaussian(R) 09 system (copyright 2009, Gaussian, Inc.),
 the Gaussian(R) 03 system (copyright 2003, Gaussian, Inc.),
 the Gaussian(R) 98 system (copyright 1998, Gaussian, Inc.),
 the Gaussian(R) 94 system (copyright 1995, Gaussian, Inc.),
 the Gaussian 92(TM) system (copyright 1992, Gaussian, Inc.),
 the Gaussian 90(TM) system (copyright 1990, Gaussian, Inc.),
 the Gaussian 88(TM) system (copyright 1988, Gaussian, Inc.),
 the Gaussian 86(TM) system (copyright 1986, Carnegie Mellon
 University), and the Gaussian 82(TM) system (copyright 1983,
 Carnegie Mellon University). Gaussian is a federally registered
 trademark of Gaussian, Inc.
  
 This software contains proprietary and confidential information,
 including trade secrets, belonging to Gaussian, Inc.
  
 This software is provided under written license and may be
 used, copied, transmitted, or stored only in accord with that
 written license.
  
 The following legend is applicable only to US Government
 contracts under FAR:
  
                    RESTRICTED RIGHTS LEGEND
  
 Use, reproduction and disclosure by the US Government is
 subject to restrictions as set forth in subparagraphs (a)
 and (c) of the Commercial Computer Software - Restricted
 Rights clause in FAR 52.227-19.
  
 Gaussian, Inc.
 340 Quinnipiac St., Bldg. 40, Wallingford CT 06492
  
  
 ---------------------------------------------------------------
 Warning -- This program may not be used in any manner that
 competes with the business of Gaussian, Inc. or will provide
 assistance to any competitor of Gaussian, Inc.  The licensee
 of this program is prohibited from giving any competitor of
 Gaussian, Inc. access to this program.  By using this program,
 the user acknowledges that Gaussian, Inc. is engaged in the
 business of creating and licensing software in the field of
 computational chemistry and represents and warrants to the
 licensee that it is not a competitor of Gaussian, Inc. and that
 it will not use this program in any manner prohibited above.
 ---------------------------------------------------------------
  

 Cite this work as:
 Gaussian 16, Revision A.03,
 M. J. Frisch, G. W. Trucks, H. B. Schlegel, G. E. Scuseria, 
 M. A. Robb, J. R. Cheeseman, G. Scalmani, V. Barone, 
 G. A. Petersson, H. Nakatsuji, X. Li, M. Caricato, A. V. Marenich, 
 J. Bloino, B. G. Janesko, R. Gomperts, B. Mennucci, H. P. Hratchian, 
 J. V. Ortiz, A. F. Izmaylov, J. L. Sonnenberg, D. Williams-Young, 
 F. Ding, F. Lipparini, F. Egidi, J. Goings, B. Peng, A. Petrone, 
 T. Henderson, D. Ranasinghe, V. G. Zakrzewski, J. Gao, N. Rega, 
 G. Zheng, W. Liang, M. Hada, M. Ehara, K. Toyota, R. Fukuda, 
 J. Hasegawa, M. Ishida, T. Nakajima, Y. Honda, O. Kitao, H. Nakai, 
 T. Vreven, K. Throssell, J. A. Montgomery, Jr., J. E. Peralta, 
 F. Ogliaro, M. J. Bearpark, J. J. Heyd, E. N. Brothers, K. N. Kudin, 
 V. N. Staroverov, T. A. Keith, R. Kobayashi, J. Normand, 
 K. Raghavachari, A. P. Rendell, J. C. Burant, S. S. Iyengar, 
 J. Tomasi, M. Cossi, J. M. Millam, M. Klene, C. Adamo, R. Cammi, 
 J. W. Ochterski, R. L. Martin, K. Morokuma, O. Farkas, 
 J. B. Foresman, and D. J. Fox, Gaussian, Inc., Wallingford CT, 2016.
 
 ******************************************
 Gaussian 16:  ES64L-G16RevA.03 25-Dec-2016
                14-Feb-2018 
 ******************************************
 %nproc=12
 Will use up to   12 processors via shared memory.
 %Chk=tests/amber_gpgg/amber_run/opt_gaussian_temp_mol.chk
 %RWF=tests/amber_gpgg/amber_run/
 ----------------------------------
 #T b3lyp/6-31G* opt iop(1/7=10000)
 ----------------------------------
 --------------------------------------------------------
 geometry optimization on in_temp_mol "opt=(maxcycles=2)"
 --------------------------------------------------------
 Symbolic Z-matrix:
 Charge = -1 Multiplicity = 1
 H                    -5.10454  -6.16624  -6.92791 
 O                    -5.94351  -5.7098   -6.73826 
 C                    -5.98591  -5.41198  -5.43913 
 C                    -7.32206  -4.76265  -5.09315 
 O                    -5.08142  -5.66368  -4.66459 
 N                    -7.33669  -4.05265  -3.83232 
 H                    -7.60553  -4.08692  -5.90195 
 H                    -8.06103  -5.57132  -5.06485 
 C                    -7.06609  -2.72427  -3.76415 
 H                    -7.51394  -4.57493  -2.98561 
 C                    -6.94375  -2.13634  -2.34156 
 O                    -6.89953  -2.03382  -4.76541 
 N                    -6.04541  -0.99949  -2.3388 
 H                    -7.92258  -1.82247  -1.97167 
 H                    -6.55289  -2.9017   -1.6654 
 C                    -5.16687  -0.8541   -1.31815 
 H                    -6.34027  -0.17294  -2.83969 
 C                    -4.49219   0.52084  -1.2066 
 O                    -4.92237  -1.78234  -0.53937 
 H                    -5.22801   1.25012  -0.84005 
 N                    -3.34999   0.65832  -0.29316 
 C                    -3.91663   0.98073  -2.57569 
 C                    -2.0792    0.23937  -0.50291 
 C                    -2.16363   1.24257  -0.95764 
 H                    -4.68114   1.45251  -3.19626 
 H                    -3.5291    0.11188  -3.11747 
 C                    -2.76375   1.91873  -2.19079 
 C                    -1.78292  -0.77384  -1.61998 
 O                    -1.11567   0.64258   0.144 
 H                    -2.47817   2.04408  -1.62814 
 H                    -1.49389   1.67443  -0.20581 
 H                    -3.52326   2.64987  -1.89303 
 H                    -2.01177   2.43915  -2.78828 
 N                    -0.88159  -0.04342  -2.57313 
 H                    -2.62092  -1.16324  -2.19455 
 H                    -1.22175  -1.60263  -1.18458 
 H                    -1.43682   0.75802  -2.93 
 H                    -0.0754    0.31435  -2.05023 
 H                    -0.5868   -0.60054  -3.39433 
 

 GradGradGradGradGradGradGradGradGradGradGradGradGradGradGradGradGradGrad
 Initialization pass.
                           ----------------------------
                           !    Initial Parameters    !
                           ! (Angstroms and Degrees)  !
 --------------------------                            --------------------------
 ! Name  Definition              Value          Derivative Info.                !
 --------------------------------------------------------------------------------
 ! R1    R(1,2)                  0.9737         estimate D2E/DX2                !
 ! R2    R(2,3)                  1.3335         estimate D2E/DX2                !
 ! R3    R(3,4)                  1.5253         estimate D2E/DX2                !
 ! R4    R(3,5)                  1.2171         estimate D2E/DX2                !
 ! R5    R(4,6)                  1.4471         estimate D2E/DX2                !
 ! R6    R(4,7)                  1.0914         estimate D2E/DX2                !
 ! R7    R(4,8)                  1.0958         estimate D2E/DX2                !
 ! R8    R(6,9)                  1.3574         estimate D2E/DX2                !
 ! R9    R(6,10)                 1.0105         estimate D2E/DX2                !
 ! R10   R(9,11)                 1.5441         estimate D2E/DX2                !
 ! R11   R(9,12)                 1.2276         estimate D2E/DX2                !
 ! R12   R(11,13)                1.4489         estimate D2E/DX2                !
 ! R13   R(11,14)                1.0924         estimate D2E/DX2                !
 ! R14   R(11,15)                1.0935         estimate D2E/DX2                !
 ! R15   R(13,16)                1.3545         estimate D2E/DX2                !
 ! R16   R(13,17)                1.0105         estimate D2E/DX2                !
 ! R17   R(16,18)                1.5356         estimate D2E/DX2                !
 ! R18   R(16,19)                1.2361         estimate D2E/DX2                !
 ! R19   R(18,20)                1.0989         estimate D2E/DX2                !
 ! R20   R(18,21)                1.469          estimate D2E/DX2                !
 ! R21   R(18,22)                1.5547         estimate D2E/DX2                !
 ! R22   R(21,23)                1.3544         estimate D2E/DX2                !
 ! R23   R(21,24)                1.48           estimate D2E/DX2                !
 ! R24   R(22,25)                1.0919         estimate D2E/DX2                !
 ! R25   R(22,26)                1.0948         estimate D2E/DX2                !
 ! R26   R(22,27)                1.5353         estimate D2E/DX2                !
 ! R27   R(23,24)                1.1047         estimate D2E/DX2                !
 ! R28   R(23,28)                1.537          estimate D2E/DX2                !
 ! R29   R(23,29)                1.2286         estimate D2E/DX2                !
 ! R30   R(24,27)                1.5291         estimate D2E/DX2                !
 ! R31   R(24,29)                1.6346         estimate D2E/DX2                !
 ! R32   R(24,30)                1.0913         estimate D2E/DX2                !
 ! R33   R(24,31)                1.0956         estimate D2E/DX2                !
 ! R34   R(27,30)                0.6433         estimate D2E/DX2                !
 ! R35   R(27,32)                1.0955         estimate D2E/DX2                !
 ! R36   R(27,33)                1.0924         estimate D2E/DX2                !
 ! R37   R(28,34)                1.5015         estimate D2E/DX2                !
 ! R38   R(28,35)                1.0881         estimate D2E/DX2                !
 ! R39   R(28,36)                1.0915         estimate D2E/DX2                !
 ! R40   R(34,37)                1.0382         estimate D2E/DX2                !
 ! R41   R(34,38)                1.0254         estimate D2E/DX2                !
 ! R42   R(34,39)                1.0352         estimate D2E/DX2                !
 ! A1    A(1,2,3)              108.7735         estimate D2E/DX2                !
 ! A2    A(2,3,4)              110.1148         estimate D2E/DX2                !
 ! A3    A(2,3,5)              123.3777         estimate D2E/DX2                !
 ! A4    A(4,3,5)              126.4888         estimate D2E/DX2                !
 ! A5    A(3,4,6)              114.5417         estimate D2E/DX2                !
 ! A6    A(3,4,7)              108.8443         estimate D2E/DX2                !
 ! A7    A(3,4,8)              106.4051         estimate D2E/DX2                !
 ! A8    A(6,4,7)              109.8336         estimate D2E/DX2                !
 ! A9    A(6,4,8)              109.4362         estimate D2E/DX2                !
 ! A10   A(7,4,8)              107.5112         estimate D2E/DX2                !
 ! A11   A(4,6,9)              121.4604         estimate D2E/DX2                !
 ! A12   A(4,6,10)             118.5714         estimate D2E/DX2                !
 ! A13   A(9,6,10)             119.914          estimate D2E/DX2                !
 ! A14   A(6,9,11)             115.7648         estimate D2E/DX2                !
 ! A15   A(6,9,12)             122.4466         estimate D2E/DX2                !
 ! A16   A(11,9,12)            121.7708         estimate D2E/DX2                !
 ! A17   A(9,11,13)            110.4636         estimate D2E/DX2                !
 ! A18   A(9,11,14)            110.508          estimate D2E/DX2                !
 ! A19   A(9,11,15)            109.3596         estimate D2E/DX2                !
 ! A20   A(13,11,14)           109.2351         estimate D2E/DX2                !
 ! A21   A(13,11,15)           109.0486         estimate D2E/DX2                !
 ! A22   A(14,11,15)           108.1794         estimate D2E/DX2                !
 ! A23   A(11,13,16)           119.195          estimate D2E/DX2                !
 ! A24   A(11,13,17)           117.3832         estimate D2E/DX2                !
 ! A25   A(16,13,17)           118.3588         estimate D2E/DX2                !
 ! A26   A(13,16,18)           115.837          estimate D2E/DX2                !
 ! A27   A(13,16,19)           121.4957         estimate D2E/DX2                !
 ! A28   A(18,16,19)           122.6637         estimate D2E/DX2                !
 ! A29   A(16,18,20)           108.9195         estimate D2E/DX2                !
 ! A30   A(16,18,21)           118.0725         estimate D2E/DX2                !
 ! A31   A(16,18,22)           111.3173         estimate D2E/DX2                !
 ! A32   A(20,18,21)           104.5434         estimate D2E/DX2                !
 ! A33   A(20,18,22)           110.2003         estimate D2E/DX2                !
 ! A34   A(21,18,22)           103.4173         estimate D2E/DX2                !
 ! A35   A(18,21,23)           127.1782         estimate D2E/DX2                !
 ! A36   A(18,21,24)           112.3987         estimate D2E/DX2                !
 ! A37   A(18,22,25)           111.66           estimate D2E/DX2                !
 ! A38   A(18,22,26)           109.3942         estimate D2E/DX2                !
 ! A39   A(18,22,27)           103.7653         estimate D2E/DX2                !
 ! A40   A(25,22,26)           108.0288         estimate D2E/DX2                !
 ! A41   A(25,22,27)           113.8464         estimate D2E/DX2                !
 ! A42   A(26,22,27)           110.0672         estimate D2E/DX2                !
 ! A43   A(21,23,28)           119.8244         estimate D2E/DX2                !
 ! A44   A(21,23,29)           123.5575         estimate D2E/DX2                !
 ! A45   A(24,23,28)           108.314          estimate D2E/DX2                !
 ! A46   A(28,23,29)           116.6068         estimate D2E/DX2                !
 ! A47   A(21,24,27)           102.8295         estimate D2E/DX2                !
 ! A48   A(21,24,29)            93.8088         estimate D2E/DX2                !
 ! A49   A(21,24,30)           109.5576         estimate D2E/DX2                !
 ! A50   A(21,24,31)           109.7267         estimate D2E/DX2                !
 ! A51   A(23,24,27)           139.7793         estimate D2E/DX2                !
 ! A52   A(23,24,30)           160.3785         estimate D2E/DX2                !
 ! A53   A(23,24,31)            91.6485         estimate D2E/DX2                !
 ! A54   A(27,24,29)           163.2327         estimate D2E/DX2                !
 ! A55   A(27,24,31)           128.2469         estimate D2E/DX2                !
 ! A56   A(29,24,30)           150.2812         estimate D2E/DX2                !
 ! A57   A(29,24,31)            44.7868         estimate D2E/DX2                !
 ! A58   A(30,24,31)           107.9577         estimate D2E/DX2                !
 ! A59   A(22,27,24)           103.1049         estimate D2E/DX2                !
 ! A60   A(22,27,30)           132.1959         estimate D2E/DX2                !
 ! A61   A(22,27,32)            87.4371         estimate D2E/DX2                !
 ! A62   A(22,27,33)           132.1336         estimate D2E/DX2                !
 ! A63   A(24,27,32)           110.3674         estimate D2E/DX2                !
 ! A64   A(24,27,33)           112.4333         estimate D2E/DX2                !
 ! A65   A(30,27,32)            86.5603         estimate D2E/DX2                !
 ! A66   A(30,27,33)            94.5864         estimate D2E/DX2                !
 ! A67   A(32,27,33)           107.937          estimate D2E/DX2                !
 ! A68   A(23,28,34)           104.8571         estimate D2E/DX2                !
 ! A69   A(23,28,35)           118.1148         estimate D2E/DX2                !
 ! A70   A(23,28,36)           108.0441         estimate D2E/DX2                !
 ! A71   A(34,28,35)           107.5295         estimate D2E/DX2                !
 ! A72   A(34,28,36)           108.2992         estimate D2E/DX2                !
 ! A73   A(35,28,36)           109.5634         estimate D2E/DX2                !
 ! A74   A(28,34,37)           105.8244         estimate D2E/DX2                !
 ! A75   A(28,34,38)           108.5415         estimate D2E/DX2                !
 ! A76   A(28,34,39)           114.3756         estimate D2E/DX2                !
 ! A77   A(37,34,38)           109.0516         estimate D2E/DX2                !
 ! A78   A(37,34,39)           107.1603         estimate D2E/DX2                !
 ! A79   A(38,34,39)           111.6186         estimate D2E/DX2                !
 ! D1    D(1,2,3,4)           -176.9372         estimate D2E/DX2                !
 ! D2    D(1,2,3,5)              1.5777         estimate D2E/DX2                !
 ! D3    D(2,3,4,6)           -162.7828         estimate D2E/DX2                !
 ! D4    D(2,3,4,7)            -39.4196         estimate D2E/DX2                !
 ! D5    D(2,3,4,8)             76.169          estimate D2E/DX2                !
 ! D6    D(5,3,4,6)             18.7597         estimate D2E/DX2                !
 ! D7    D(5,3,4,7)            142.123          estimate D2E/DX2                !
 ! D8    D(5,3,4,8)           -102.2885         estimate D2E/DX2                !
 ! D9    D(3,4,6,9)             92.7027         estimate D2E/DX2                !
 ! D10   D(3,4,6,10)           -84.6162         estimate D2E/DX2                !
 ! D11   D(7,4,6,9)            -30.1278         estimate D2E/DX2                !
 ! D12   D(7,4,6,10)           152.5533         estimate D2E/DX2                !
 ! D13   D(8,4,6,9)           -147.9332         estimate D2E/DX2                !
 ! D14   D(8,4,6,10)            34.7479         estimate D2E/DX2                !
 ! D15   D(4,6,9,11)          -172.6328         estimate D2E/DX2                !
 ! D16   D(4,6,9,12)             5.8589         estimate D2E/DX2                !
 ! D17   D(10,6,9,11)            4.6506         estimate D2E/DX2                !
 ! D18   D(10,6,9,12)         -176.8577         estimate D2E/DX2                !
 ! D19   D(6,9,11,13)          151.2258         estimate D2E/DX2                !
 ! D20   D(6,9,11,14)          -87.7763         estimate D2E/DX2                !
 ! D21   D(6,9,11,15)           31.203          estimate D2E/DX2                !
 ! D22   D(12,9,11,13)         -27.277          estimate D2E/DX2                !
 ! D23   D(12,9,11,14)          93.7209         estimate D2E/DX2                !
 ! D24   D(12,9,11,15)        -147.2998         estimate D2E/DX2                !
 ! D25   D(9,11,13,16)        -138.8576         estimate D2E/DX2                !
 ! D26   D(9,11,13,17)          66.693          estimate D2E/DX2                !
 ! D27   D(14,11,13,16)         99.3901         estimate D2E/DX2                !
 ! D28   D(14,11,13,17)        -55.0594         estimate D2E/DX2                !
 ! D29   D(15,11,13,16)        -18.648          estimate D2E/DX2                !
 ! D30   D(15,11,13,17)       -173.0975         estimate D2E/DX2                !
 ! D31   D(11,13,16,18)       -166.0314         estimate D2E/DX2                !
 ! D32   D(11,13,16,19)         14.638          estimate D2E/DX2                !
 ! D33   D(17,13,16,18)        -11.8299         estimate D2E/DX2                !
 ! D34   D(17,13,16,19)        168.8394         estimate D2E/DX2                !
 ! D35   D(13,16,18,20)         72.7112         estimate D2E/DX2                !
 ! D36   D(13,16,18,21)       -168.3646         estimate D2E/DX2                !
 ! D37   D(13,16,18,22)        -48.9965         estimate D2E/DX2                !
 ! D38   D(19,16,18,20)       -107.9667         estimate D2E/DX2                !
 ! D39   D(19,16,18,21)         10.9574         estimate D2E/DX2                !
 ! D40   D(19,16,18,22)        130.3255         estimate D2E/DX2                !
 ! D41   D(16,18,21,23)         76.8154         estimate D2E/DX2                !
 ! D42   D(16,18,21,24)        127.2443         estimate D2E/DX2                !
 ! D43   D(20,18,21,23)       -161.9866         estimate D2E/DX2                !
 ! D44   D(20,18,21,24)       -111.5578         estimate D2E/DX2                !
 ! D45   D(22,18,21,23)        -46.606          estimate D2E/DX2                !
 ! D46   D(22,18,21,24)          3.8229         estimate D2E/DX2                !
 ! D47   D(16,18,22,25)         83.6193         estimate D2E/DX2                !
 ! D48   D(16,18,22,26)        -35.9089         estimate D2E/DX2                !
 ! D49   D(16,18,22,27)       -153.3453         estimate D2E/DX2                !
 ! D50   D(20,18,22,25)        -37.341          estimate D2E/DX2                !
 ! D51   D(20,18,22,26)       -156.8692         estimate D2E/DX2                !
 ! D52   D(20,18,22,27)         85.6944         estimate D2E/DX2                !
 ! D53   D(21,18,22,25)       -148.6164         estimate D2E/DX2                !
 ! D54   D(21,18,22,26)         91.8554         estimate D2E/DX2                !
 ! D55   D(21,18,22,27)        -25.5809         estimate D2E/DX2                !
 ! D56   D(18,21,23,28)        -16.0479         estimate D2E/DX2                !
 ! D57   D(18,21,23,29)        162.6866         estimate D2E/DX2                !
 ! D58   D(18,21,24,27)         19.4776         estimate D2E/DX2                !
 ! D59   D(18,21,24,29)       -158.4324         estimate D2E/DX2                !
 ! D60   D(18,21,24,30)         40.2456         estimate D2E/DX2                !
 ! D61   D(18,21,24,31)        158.6033         estimate D2E/DX2                !
 ! D62   D(18,22,27,24)         37.5847         estimate D2E/DX2                !
 ! D63   D(18,22,27,30)         10.2764         estimate D2E/DX2                !
 ! D64   D(18,22,27,32)        -72.7365         estimate D2E/DX2                !
 ! D65   D(18,22,27,33)        175.2261         estimate D2E/DX2                !
 ! D66   D(25,22,27,24)        159.1702         estimate D2E/DX2                !
 ! D67   D(25,22,27,30)        131.8618         estimate D2E/DX2                !
 ! D68   D(25,22,27,32)         48.8489         estimate D2E/DX2                !
 ! D69   D(25,22,27,33)        -63.1885         estimate D2E/DX2                !
 ! D70   D(26,22,27,24)        -79.382          estimate D2E/DX2                !
 ! D71   D(26,22,27,30)       -106.6903         estimate D2E/DX2                !
 ! D72   D(26,22,27,32)        170.2968         estimate D2E/DX2                !
 ! D73   D(26,22,27,33)         58.2594         estimate D2E/DX2                !
 ! D74   D(28,23,24,27)         41.5311         estimate D2E/DX2                !
 ! D75   D(28,23,24,30)         50.4968         estimate D2E/DX2                !
 ! D76   D(28,23,24,31)       -131.7376         estimate D2E/DX2                !
 ! D77   D(21,23,28,34)        117.2191         estimate D2E/DX2                !
 ! D78   D(21,23,28,35)         -2.453          estimate D2E/DX2                !
 ! D79   D(21,23,28,36)       -127.4363         estimate D2E/DX2                !
 ! D80   D(24,23,28,34)         36.4834         estimate D2E/DX2                !
 ! D81   D(24,23,28,35)        -83.1887         estimate D2E/DX2                !
 ! D82   D(24,23,28,36)        151.828          estimate D2E/DX2                !
 ! D83   D(29,23,28,34)        -61.6015         estimate D2E/DX2                !
 ! D84   D(29,23,28,35)        178.7264         estimate D2E/DX2                !
 ! D85   D(29,23,28,36)         53.7431         estimate D2E/DX2                !
 ! D86   D(21,24,27,22)        -34.6816         estimate D2E/DX2                !
 ! D87   D(21,24,27,32)         57.4648         estimate D2E/DX2                !
 ! D88   D(21,24,27,33)        178.0404         estimate D2E/DX2                !
 ! D89   D(23,24,27,22)         25.5598         estimate D2E/DX2                !
 ! D90   D(23,24,27,32)        117.7062         estimate D2E/DX2                !
 ! D91   D(23,24,27,33)       -121.7182         estimate D2E/DX2                !
 ! D92   D(29,24,27,22)        138.0721         estimate D2E/DX2                !
 ! D93   D(29,24,27,32)       -129.7815         estimate D2E/DX2                !
 ! D94   D(29,24,27,33)         -9.2059         estimate D2E/DX2                !
 ! D95   D(31,24,27,22)       -163.02           estimate D2E/DX2                !
 ! D96   D(31,24,27,32)        -70.8737         estimate D2E/DX2                !
 ! D97   D(31,24,27,33)         49.7019         estimate D2E/DX2                !
 ! D98   D(23,28,34,37)        -62.3146         estimate D2E/DX2                !
 ! D99   D(23,28,34,38)         54.6163         estimate D2E/DX2                !
 ! D100  D(23,28,34,39)        179.9684         estimate D2E/DX2                !
 ! D101  D(35,28,34,37)         64.2033         estimate D2E/DX2                !
 ! D102  D(35,28,34,38)       -178.8657         estimate D2E/DX2                !
 ! D103  D(35,28,34,39)        -53.5137         estimate D2E/DX2                !
 ! D104  D(36,28,34,37)       -177.4817         estimate D2E/DX2                !
 ! D105  D(36,28,34,38)        -60.5507         estimate D2E/DX2                !
 ! D106  D(36,28,34,39)         64.8013         estimate D2E/DX2                !
 --------------------------------------------------------------------------------
 Number of steps in this run=    234 maximum allowed number of steps=    234.
 GradGradGradGradGradGradGradGradGradGradGradGradGradGradGradGradGradGrad

                    Distance matrix (angstroms):
                    1          2          3          4          5
     1  H    0.000000
     2  O    0.973743   0.000000
     3  C    1.887376   1.333504   0.000000
     4  C    3.202156   2.346035   1.525329   0.000000
     5  O    2.318560   2.246204   1.217114   2.452751   0.000000
     6  N    4.362618   3.623753   2.500844   1.447068   2.893844
     7  H    3.410442   2.468899   2.143165   1.091386   3.223098
     8  H    3.544821   2.702475   2.114615   1.095821   3.007792
     9  C    5.069932   4.361067   3.346062   2.446785   3.659213
    10  H    4.886635   4.223335   3.009201   2.124566   3.149842
    11  C    6.376315   5.753353   4.608928   3.822548   4.615936
    12  O    4.997528   4.280063   3.563785   2.780730   4.060982
    13  N    6.974272   6.446135   5.393112   4.835044   5.300306
    14  H    7.167566   6.461303   5.353368   4.330002   5.484424
    15  H    6.359949   5.830153   4.567714   3.975453   4.334616
    16  C    7.726068   7.318373   6.198998   5.845702   5.859865
    17  H    7.359362   6.783295   5.859198   5.206480   5.921418
    18  C    8.821871   8.457332   7.439346   7.143438   7.110076
    19  O    7.750175   7.409042   6.189754   5.947913   5.666351
    20  H    9.595816   9.151028   8.130776   7.656847   7.902482
    21  N    9.678480   9.424363   8.383175   8.258581   7.878765
    22  C    8.451753   8.136241   7.303968   7.135893   7.061758
    23  C    9.563741   9.444845   8.459693   8.577767   7.821694
    24  C    9.959093   9.799924   8.886879   8.931658   8.363687
    25  H    8.494106   8.089377   7.338536   7.014333   7.277113
    26  H    7.511075   7.268525   6.476037   6.484667   6.177408
    27  C    9.658486   9.433177   8.641374   8.593179   8.305674
    28  C    8.263489   8.238386   7.332351   7.658694   6.637792
    29  O   10.596368  10.536901   9.568086   9.755180   8.866715
    30  H   10.119028   9.911840   9.078586   9.044398   8.683692
    31  H   10.940728  10.816602   9.888533   9.964420   9.305856
    32  H   10.274934   9.960821   9.145102   8.922842   8.900816
    33  H   10.037654   9.872503   9.190269   9.239996   8.865616
    34  N    8.618952   8.664826   7.942888   8.372651   7.321209
    35  H    7.321412   7.235752   6.316823   6.592295   5.692901
    36  H    8.299906   8.367032   7.437040   7.904203   6.595426
    37  H    8.796637   8.754758   8.065907   8.354224   7.584863
    38  H    9.543692   9.628225   8.899979   9.356782   8.223865
    39  H    7.992070   8.122853   7.515421   8.097708   6.888436
                    6          7          8          9         10
     6  N    0.000000
     7  H    2.087299   0.000000
     8  H    2.085703   1.763990   0.000000
     9  C    1.357374   2.591910   3.284421   0.000000
    10  H    1.010501   2.958307   2.369671   2.057094   0.000000
    11  C    2.459474   4.113282   4.523683   1.544147   2.585853
    12  O    2.266592   2.450587   3.735325   1.227593   3.162661
    13  N    3.635903   4.966109   5.691722   2.459324   3.919020
    14  H    2.962936   4.547016   4.862181   2.181697   2.961604
    15  H    2.575766   4.523401   4.577949   2.167858   2.338006
    16  C    4.610845   6.116323   6.683269   3.617663   4.704650
    17  H    4.126780   5.128115   6.087270   2.809044   4.558104
    18  C    5.991861   7.278094   8.045938   4.867932   6.185687
    19  O    4.671913   6.423994   6.684873   3.985219   4.527569
    20  H    6.443569   7.730422   8.509229   5.265423   6.615143
    21  N    7.114258   8.490315   9.152668   6.107298   7.209346
    22  C    6.213762   7.095989   8.142563   5.005853   6.631292
    23  C    7.559604   8.854758   9.505667   6.654917   7.673179
    24  C    7.941265   9.080966   9.903413   6.902639   8.159766
    25  H    6.145185   6.823350   8.015577   4.843137   6.663270
    26  H    5.687887   6.480782   7.525254   4.579546   6.153253
    27  C    7.698297   8.560571   9.613649   6.522503   8.084780
    28  C    6.818314   7.950758   8.619606   6.026071   7.011264
    29  O    8.749708  10.051864  10.676268   7.875075   8.829197
    30  H    8.101465   9.063357  10.048563   6.953324   8.426921
    31  H    8.949264  10.148463  10.919638   7.941017   9.111684
    32  H    7.951532   8.838592   9.911597   6.703291   8.325683
    33  H    8.460985   9.141919  10.292908   7.291048   8.916845
    34  N    7.702454   8.523045   9.397378   6.844964   8.043183
    35  H    5.767969   6.865789   7.567337   4.965883   6.017229
    36  H    7.099691   8.317327   8.808107   6.486029   7.188180
    37  H    7.665846   8.388022   9.407353   6.671644   8.085471
    38  H    8.658687   9.534662  10.368188   7.812841   8.950524
    39  H    7.594071   8.228340   9.130356   6.828484   7.996755
                   11         12         13         14         15
    11  C    0.000000
    12  O    2.426420   0.000000
    13  N    1.448948   2.772687   0.000000
    14  H    1.092447   2.982664   2.082270   0.000000
    15  H    1.093499   3.237814   2.080723   1.770477   0.000000
    16  C    2.418431   4.034532   1.354510   2.993120   2.496858
    17  H    2.113590   2.735698   1.010454   2.445018   2.978304
    18  C    3.789312   4.998670   2.450668   4.224217   4.021289
    19  O    2.731150   4.672453   2.260978   3.324809   2.275853
    20  H    4.082451   5.383929   2.824029   4.240528   4.435552
    21  N    4.992112   6.312517   3.768059   5.466287   4.981501
    22  C    4.351367   4.772848   2.917035   4.926500   4.780351
    23  C    5.717384   6.824359   4.542696   6.368165   5.588524
    24  C    6.015132   6.903810   4.690698   6.602138   6.077952
    25  H    4.327789   4.420179   2.934071   4.767814   4.980575
    26  H    4.161294   4.321983   2.858896   4.935305   4.509266
    27  C    5.825695   6.273436   4.393997   6.376372   6.153874
    28  C    5.386209   6.136854   4.328561   6.238488   5.223262
    29  O    6.918592   8.044778   5.758735   7.542318   6.737894
    30  H    6.158432   6.783816   4.742737   6.686540   6.408235
    31  H    6.984581   7.985112   5.693490   7.528255   6.976020
    32  H    5.899893   6.448776   4.458450   6.273916   6.328539
    33  H    6.742336   6.914239   5.319448   7.332526   7.099810
    34  N    6.417455   6.706965   5.256807   7.287133   6.415402
    35  H    4.433441   5.066926   3.431436   5.347136   4.331585
    36  H    5.862144   6.726474   4.996368   6.750479   5.508160
    37  H    6.248989   6.403460   4.967641   7.045737   6.416146
    38  H    7.298287   7.710697   6.119679   8.133290   7.242165
    39  H    6.624033   6.617002   5.574023   7.571707   6.624105
                   16         17         18         19         20
    16  C    0.000000
    17  H    2.038610   0.000000
    18  C    1.535609   2.561974   0.000000
    19  O    1.236086   3.145168   2.436163   0.000000
    20  H    2.158717   2.694584   1.098926   3.062619   0.000000
    21  N    2.576640   4.014671   1.468977   2.913729   2.043594
    22  C    2.551687   2.697162   1.554727   3.576684   2.191971
    23  C    3.375500   4.877218   2.529214   3.488876   3.324197
    24  C    3.680413   4.794800   2.450524   4.115298   3.066645
    25  H    3.013914   2.349881   2.205098   4.193031   2.427294
    26  H    2.617816   2.839183   2.178581   3.489394   3.060805
    27  C    3.771614   4.193763   2.431097   4.591813   2.888618
    28  C    3.398332   4.755861   3.031043   3.470005   4.071038
    29  O    4.559622   6.071567   3.638657   4.564887   4.271861
    30  H    3.965432   4.615067   2.560124   4.669157   2.968683
    31  H    4.595818   5.817001   3.364841   4.880061   3.811293
    32  H    3.912767   4.098776   2.437782   4.840908   2.444226
    33  H    4.791809   5.055845   3.511995   5.599122   3.943804
    34  N    4.538260   5.466719   3.901567   4.846434   4.854707
    35  H    2.710259   3.902623   2.704408   2.901651   3.802091
    36  H    4.017724   5.566206   3.899409   3.760742   4.930213
    37  H    4.371529   4.991860   3.515914   4.931288   4.356969
    38  H    5.274873   6.333190   4.501376   5.492898   5.374904
    39  H    5.035063   5.795937   4.614729   5.323966   5.611606
                   21         22         23         24         25
    21  N    0.000000
    22  C    2.373810   0.000000
    23  C    1.354408   2.867434   0.000000
    24  C    1.479977   2.399928   1.104680   0.000000
    25  H    3.291001   1.091860   3.936488   3.375404   0.000000
    26  H    2.882257   1.094808   2.992388   2.794250   1.769376
    27  C    2.352299   1.535293   2.477458   1.529050   2.214659
    28  C    2.503446   2.923117   1.536952   2.156280   3.980072
    29  O    2.276739   3.918729   1.228601   1.634570   4.952363
    30  H    2.112480   2.024285   2.163862   1.091295   2.768038
    31  H    2.117833   3.459367   1.578054   1.095583   4.376140
    32  H    2.560445   1.845750   3.135004   2.168880   2.114891
    33  H    3.344819   2.408459   3.172774   2.192284   2.874968
    34  N    3.432740   3.203179   2.408329   2.430474   4.130699
    35  H    2.732198   2.533918   2.263277   2.743535   3.477079
    36  H    3.230469   3.983882   2.143096   3.005629   5.034691
    37  H    3.259307   2.514874   2.563672   2.157138   3.328487
    38  H    3.732097   3.933855   2.532792   2.532992   4.880741
    39  H    4.340185   3.776024   3.360508   3.438154   4.584525
                   26         27         28         29         30
    26  H    0.000000
    27  C    2.170070   0.000000
    28  C    2.464979   2.921949   0.000000
    29  O    4.091879   3.129852   2.358621   0.000000
    30  H    2.656305   0.643307   2.902432   2.638388   0.000000
    31  H    3.880903   2.369045   2.842084   1.153313   1.768748
    32  H    2.817921   1.095483   3.850342   3.738341   1.236673
    33  H    2.797649   1.092385   3.426456   3.553720   1.311310
    34  N    2.707348   2.745677   1.501467   2.812150   2.792800
    35  H    1.817279   3.085280   1.088121   3.315958   3.260077
    36  H    3.464025   3.973688   1.091503   2.611005   3.882503
    37  H    2.197789   1.911654   2.045124   3.092885   2.105516
    38  H    3.620503   3.133850   2.069999   2.450417   2.990557
    39  H    3.039954   3.540387   2.146871   3.787457   3.700098
                   31         32         33         34         35
    31  H    0.000000
    32  H    2.813634   0.000000
    33  H    2.742653   1.769316   0.000000
    34  N    2.988331   3.833375   2.736193   0.000000
    35  H    3.643852   3.930005   3.701458   2.102995   0.000000
    36  H    3.430914   4.886983   4.419499   2.115400   1.780668
    37  H    2.874765   3.001272   1.782372   1.038240   2.373651
    38  H    2.695147   4.167386   2.968000   1.025361   2.946824
    39  H    4.020567   4.630536   3.411386   1.035207   2.427704
                   36         37         38         39
    36  H    0.000000
    37  H    2.943708   0.000000
    38  H    2.395471   1.680566   0.000000
    39  H    2.508055   1.668479   1.704453   0.000000
 Framework group  C1[X(C11H19N4O5)]
 Deg. of freedom   111
                         Standard orientation:                         
 ---------------------------------------------------------------------
 Center     Atomic      Atomic             Coordinates (Angstroms)
 Number     Number       Type             X           Y           Z
 ---------------------------------------------------------------------
      1          1           0       -5.567615    2.947241    0.419339
      2          8           0       -5.618258    1.997747    0.629273
      3          6           0       -4.797178    1.333776   -0.185101
      4          6           0       -4.908902   -0.166504    0.066502
      5          8           0       -4.095665    1.877753   -1.017769
      6          7           0       -3.811395   -0.947886   -0.461633
      7          1           0       -5.002420   -0.337862    1.140288
      8          1           0       -5.845328   -0.489962   -0.401799
      9          6           0       -2.727752   -1.250921    0.297547
     10          1           0       -3.844497   -1.234886   -1.429955
     11          6           0       -1.559144   -1.935843   -0.443821
     12          8           0       -2.662405   -0.975070    1.491959
     13          7           0       -0.297840   -1.615528    0.193328
     14          1           0       -1.693529   -3.019968   -0.451223
     15          1           0       -1.533876   -1.588116   -1.480251
     16          6           0        0.781173   -1.341125   -0.578120
     17          1           0       -0.142918   -1.975712    1.124609
     18          6           0        2.136893   -1.341073    0.143075
     19          8           0        0.667035   -1.094962   -1.784057
     20          1           0        2.415046   -2.377716    0.378959
     21          7           0        3.300476   -0.800615   -0.572378
     22          6           0        2.085473   -0.489944    1.443118
     23          6           0        3.600714    0.503802   -0.779200
     24          6           0        4.012600    0.234471    0.209804
     25          1           0        1.685515   -1.061216    2.283261
     26          1           0        1.437120    0.377794    1.284140
     27          6           0        3.538213   -0.033336    1.638521
     28          6           0        2.520651    1.578271   -0.576220
     29          8           0        4.716551    0.900216   -1.106651
     30          1           0        4.056072   -0.065349    1.258204
     31          1           0        5.040510    0.332701   -0.156331
     32          1           0        3.770822   -1.063176    1.930763
     33          1           0        4.004597    0.636024    2.364984
     34          7           0        3.035149    2.434366    0.544850
     35          1           0        1.517959    1.252884   -0.306516
     36          1           0        2.476193    2.188016   -1.480439
     37          1           0        3.103006    1.808744    1.370644
     38          1           0        3.973576    2.765630    0.297899
     39          1           0        2.410535    3.217648    0.805581
 ---------------------------------------------------------------------
 Rotational constants (GHZ):           0.6442112           0.1407026           0.1302514
   338 basis functions,   636 primitive gaussians,   338 cartesian basis functions
    77 alpha electrons       77 beta electrons
       nuclear repulsion energy      1672.0728708279 Hartrees.
 NAtoms=   39 NActive=   39 NUniq=   39 SFac= 1.00D+00 NAtFMM=   60 NAOKFM=F Big=F
 ExpMin= 1.61D-01 ExpMax= 5.48D+03 ExpMxC= 8.25D+02 IAcc=3 IRadAn=         5 AccDes= 0.00D+00
 Harris functional with IExCor=  402 and IRadAn=       5 diagonalized for initial guess.
 HarFok:  IExCor=  402 AccDes= 0.00D+00 IRadAn=         5 IDoV= 1 UseB2=F ITyADJ=14
 ICtDFT=  3500011 ScaDFX=  1.000000  1.000000  1.000000  1.000000
 FoFCou: FMM=F IPFlag=           0 FMFlag=      100000 FMFlg1=           0
         NFxFlg=           0 DoJE=T BraDBF=F KetDBF=T FulRan=T
         wScrn=  0.000000 ICntrl=       500 IOpCl=  0 I1Cent=   200000004 NGrid=           0
         NMat0=    1 NMatS0=      1 NMatT0=    0 NMatD0=    1 NMtDS0=    0 NMtDT0=    0
 Petite list used in FoFCou.
 Integral accuracy reduced to 1.0D-05 until final iterations.
 EnCoef did     6 forward-backward iterations
 EnCoef did   100 forward-backward iterations
 EnCoef did   100 forward-backward iterations
 EnCoef did     2 forward-backward iterations
 EnCoef did     2 forward-backward iterations
 EnCoef did     6 forward-backward iterations
 EnCoef did     4 forward-backward iterations
 EnCoef did    16 forward-backward iterations
 EnCoef did    24 forward-backward iterations
 EnCoef did     5 forward-backward iterations
 EnCoef did    30 forward-backward iterations
 EnCoef did     8 forward-backward iterations
 Restarting incremental Fock formation.
 Initial convergence to 1.0D-05 achieved.  Increase integral accuracy.
 SCF Done:  E(RB3LYP) =  -1024.44473700     A.U. after   34 cycles
            NFock= 34  Conv=0.54D-08     -V/T= 2.0028

 **********************************************************************

            Population analysis using the SCF density.

 **********************************************************************

 Orbital symmetries:
       Occupied  (A) (A) (A) (A) (A) (A) (A) (A) (A) (A) (A) (A)
                 (A) (A) (A) (A) (A) (A) (A) (A) (A) (A) (A) (A)
                 (A) (A) (A) (A) (A) (A) (A) (A) (A) (A) (A) (A)
                 (A) (A) (A) (A) (A) (A) (A) (A) (A) (A) (A) (A)
                 (A) (A) (A) (A) (A) (A) (A) (A) (A) (A) (A) (A)
                 (A) (A) (A) (A) (A) (A) (A) (A) (A) (A) (A) (A)
                 (A) (A) (A) (A) (A)
       Virtual   (A) (A) (A) (A) (A) (A) (A) (A) (A) (A) (A) (A)
                 (A) (A) (A) (A) (A) (A) (A) (A) (A) (A) (A) (A)
                 (A) (A) (A) (A) (A) (A) (A) (A) (A) (A) (A) (A)
                 (A) (A) (A) (A) (A) (A) (A) (A) (A) (A) (A) (A)
                 (A) (A) (A) (A) (A) (A) (A) (A) (A) (A) (A) (A)
                 (A) (A) (A) (A) (A) (A) (A) (A) (A) (A) (A) (A)
                 (A) (A) (A) (A) (A) (A) (A) (A) (A) (A) (A) (A)
                 (A) (A) (A) (A) (A) (A) (A) (A) (A) (A) (A) (A)
                 (A) (A) (A) (A) (A) (A) (A) (A) (A) (A) (A) (A)
                 (A) (A) (A) (A) (A) (A) (A) (A) (A) (A) (A) (A)
                 (A) (A) (A) (A) (A) (A) (A) (A) (A) (A) (A) (A)
                 (A) (A) (A) (A) (A) (A) (A) (A) (A) (A) (A) (A)
                 (A) (A) (A) (A) (A) (A) (A) (A) (A) (A) (A) (A)
                 (A) (A) (A) (A) (A) (A) (A) (A) (A) (A) (A) (A)
                 (A) (A) (A) (A) (A) (A) (A) (A) (A) (A) (A) (A)
                 (A) (A) (A) (A) (A) (A) (A) (A) (A) (A) (A) (A)
                 (A) (A) (A) (A) (A) (A) (A) (A) (A) (A) (A) (A)
                 (A) (A) (A) (A) (A) (A) (A) (A) (A) (A) (A) (A)
                 (A) (A) (A) (A) (A) (A) (A) (A) (A) (A) (A) (A)
                 (A) (A) (A) (A) (A) (A) (A) (A) (A) (A) (A) (A)
                 (A) (A) (A) (A) (A) (A) (A) (A) (A) (A) (A) (A)
                 (A) (A) (A) (A) (A) (A) (A) (A) (A)
 The electronic state is 1-A.
 Alpha  occ. eigenvalues --  -19.08661 -19.00924 -18.99727 -18.97061 -18.90799
 Alpha  occ. eigenvalues --  -14.29056 -14.25527 -14.22843 -14.16916 -10.18455
 Alpha  occ. eigenvalues --  -10.16789 -10.14314 -10.12930 -10.11124 -10.09504
 Alpha  occ. eigenvalues --  -10.09373 -10.07574 -10.07327 -10.06491 -10.03553
 Alpha  occ. eigenvalues --   -1.00628  -0.99419  -0.91880  -0.89170  -0.89020
 Alpha  occ. eigenvalues --   -0.86230  -0.84979  -0.81456  -0.79193  -0.77546
 Alpha  occ. eigenvalues --   -0.66416  -0.64583  -0.59858  -0.59741  -0.54833
 Alpha  occ. eigenvalues --   -0.51982  -0.49061  -0.47696  -0.46061  -0.45327
 Alpha  occ. eigenvalues --   -0.45149  -0.42508  -0.40379  -0.39861  -0.38871
 Alpha  occ. eigenvalues --   -0.38476  -0.36859  -0.36430  -0.35083  -0.34720
 Alpha  occ. eigenvalues --   -0.34358  -0.33220  -0.32253  -0.31925  -0.29788
 Alpha  occ. eigenvalues --   -0.29443  -0.29059  -0.28354  -0.28152  -0.27721
 Alpha  occ. eigenvalues --   -0.27352  -0.25712  -0.24871  -0.22776  -0.21998
 Alpha  occ. eigenvalues --   -0.21413  -0.20070  -0.16158  -0.14537  -0.14443
 Alpha  occ. eigenvalues --   -0.13996  -0.12244  -0.11836  -0.10869  -0.06508
 Alpha  occ. eigenvalues --    0.00831   0.10805
 Alpha virt. eigenvalues --    0.12335   0.13567   0.15311   0.16803   0.17312
 Alpha virt. eigenvalues --    0.17836   0.19883   0.21203   0.22344   0.22772
 Alpha virt. eigenvalues --    0.23618   0.24370   0.24628   0.24784   0.26239
 Alpha virt. eigenvalues --    0.27309   0.27663   0.28128   0.28792   0.30464
 Alpha virt. eigenvalues --    0.31598   0.31896   0.33070   0.33397   0.33979
 Alpha virt. eigenvalues --    0.35473   0.36526   0.36950   0.38104   0.40304
 Alpha virt. eigenvalues --    0.41175   0.42048   0.42962   0.44553   0.45825
 Alpha virt. eigenvalues --    0.47338   0.48435   0.49224   0.51591   0.52835
 Alpha virt. eigenvalues --    0.55316   0.56611   0.61846   0.62417   0.63499
 Alpha virt. eigenvalues --    0.64342   0.65458   0.66628   0.68347   0.68754
 Alpha virt. eigenvalues --    0.69377   0.69748   0.71208   0.72149   0.72493
 Alpha virt. eigenvalues --    0.73106   0.74784   0.75515   0.76086   0.76562
 Alpha virt. eigenvalues --    0.77649   0.78197   0.79135   0.80065   0.80245
 Alpha virt. eigenvalues --    0.80919   0.82306   0.82414   0.85659   0.86332
 Alpha virt. eigenvalues --    0.87172   0.89035   0.90245   0.91482   0.91764
 Alpha virt. eigenvalues --    0.92509   0.93010   0.93744   0.93988   0.94533
 Alpha virt. eigenvalues --    0.95194   0.96430   0.96532   0.97482   0.97836
 Alpha virt. eigenvalues --    0.98919   0.99060   0.99534   1.00308   1.01204
 Alpha virt. eigenvalues --    1.01598   1.02061   1.02686   1.04446   1.04680
 Alpha virt. eigenvalues --    1.05682   1.05907   1.06364   1.07137   1.07833
 Alpha virt. eigenvalues --    1.08776   1.10688   1.11525   1.12947   1.13665
 Alpha virt. eigenvalues --    1.14676   1.15712   1.16808   1.17632   1.19934
 Alpha virt. eigenvalues --    1.20451   1.21430   1.22600   1.24269   1.25344
 Alpha virt. eigenvalues --    1.26399   1.27979   1.28759   1.31836   1.33495
 Alpha virt. eigenvalues --    1.35388   1.39120   1.39668   1.41462   1.43373
 Alpha virt. eigenvalues --    1.45897   1.48261   1.51198   1.52031   1.53289
 Alpha virt. eigenvalues --    1.54359   1.56294   1.57613   1.58948   1.60668
 Alpha virt. eigenvalues --    1.61745   1.63889   1.64492   1.67991   1.68430
 Alpha virt. eigenvalues --    1.71047   1.72745   1.74890   1.75471   1.77764
 Alpha virt. eigenvalues --    1.78353   1.81539   1.82655   1.82791   1.84113
 Alpha virt. eigenvalues --    1.88345   1.88422   1.89957   1.90852   1.91313
 Alpha virt. eigenvalues --    1.92358   1.93179   1.94610   1.95364   1.96026
 Alpha virt. eigenvalues --    1.97515   1.97774   1.98050   2.00829   2.02213
 Alpha virt. eigenvalues --    2.03473   2.04802   2.05354   2.06421   2.06823
 Alpha virt. eigenvalues --    2.08093   2.09277   2.11050   2.11215   2.13040
 Alpha virt. eigenvalues --    2.13812   2.14667   2.15135   2.16429   2.18160
 Alpha virt. eigenvalues --    2.20414   2.21226   2.22563   2.23332   2.25332
 Alpha virt. eigenvalues --    2.26546   2.29562   2.30013   2.31760   2.35158
 Alpha virt. eigenvalues --    2.36763   2.37695   2.39679   2.41973   2.44057
 Alpha virt. eigenvalues --    2.45184   2.45617   2.46669   2.48993   2.49764
 Alpha virt. eigenvalues --    2.50353   2.51445   2.52949   2.54336   2.56782
 Alpha virt. eigenvalues --    2.56905   2.59857   2.61297   2.63106   2.65797
 Alpha virt. eigenvalues --    2.67351   2.69831   2.70190   2.74513   2.75421
 Alpha virt. eigenvalues --    2.78189   2.79616   2.80812   2.81058   2.81488
 Alpha virt. eigenvalues --    2.84139   2.86514   2.87854   2.92737   2.93806
 Alpha virt. eigenvalues --    2.97012   3.00785   3.02035   3.04175   3.08715
 Alpha virt. eigenvalues --    3.10173   3.12979   3.18368   3.20999   3.21223
 Alpha virt. eigenvalues --    3.25731   3.29422   3.29851   3.34632   3.43470
 Alpha virt. eigenvalues --    3.88864   3.97350   4.06528   4.10586   4.13041
 Alpha virt. eigenvalues --    4.18022   4.23277   4.24340   4.31610   4.35017
 Alpha virt. eigenvalues --    4.38764   4.42741   4.50350   4.60462   4.62191
 Alpha virt. eigenvalues --    4.65650   4.66583   4.82411   4.84292   4.92386
 Alpha virt. eigenvalues --    5.03731
          Condensed to atoms (all electrons):
 Mulliken charges:
               1
     1  H    0.385781
     2  O   -0.576432
     3  C    0.520689
     4  C   -0.208428
     5  O   -0.507283
     6  N   -0.570891
     7  H    0.187474
     8  H    0.120517
     9  C    0.598601
    10  H    0.304267
    11  C   -0.245144
    12  O   -0.544331
    13  N   -0.554852
    14  H    0.137667
    15  H    0.187723
    16  C    0.578591
    17  H    0.293737
    18  C   -0.061429
    19  O   -0.564004
    20  H    0.109086
    21  N   -0.441812
    22  C   -0.239814
    23  C    0.406875
    24  C    0.090231
    25  H    0.063677
    26  H    0.075772
    27  C    0.001334
    28  C   -0.234972
    29  O   -0.646385
    30  H   -0.267908
    31  H    0.208965
    32  H   -0.077577
    33  H    0.110203
    34  N   -0.533499
    35  H    0.173432
    36  H    0.129841
    37  H    0.235965
    38  H    0.252584
    39  H    0.101750
 Sum of Mulliken charges =  -1.00000
 Mulliken charges with hydrogens summed into heavy atoms:
               1
     2  O   -0.190652
     3  C    0.520689
     4  C    0.099562
     5  O   -0.507283
     6  N   -0.266623
     9  C    0.598601
    11  C    0.080246
    12  O   -0.544331
    13  N   -0.261116
    16  C    0.578591
    18  C    0.047657
    19  O   -0.564004
    21  N   -0.441812
    22  C   -0.100365
    23  C    0.406875
    24  C    0.299196
    27  C   -0.233948
    28  C    0.068301
    29  O   -0.646385
    34  N    0.056800
 Electronic spatial extent (au):  <R**2>=           8280.0343
 Charge=             -1.0000 electrons
 Dipole moment (field-independent basis, Debye):
    X=             -6.5694    Y=              0.6685    Z=              3.0137  Tot=              7.2585
 Calling FoFJK, ICntrl=      2127 FMM=F ISym2X=0 I1Cent= 0 IOpClX= 0 NMat=1 NMatS=1 NMatT=0.

 GradGradGradGradGradGradGradGradGradGradGradGradGradGradGradGradGradGrad
 FormGI is forming the generalized inverse of G from B-inverse, IUseBI=4.
 Internal  Forces:  Max     0.860248357 RMS     0.086502626
 Step number   1 out of a maximum of  234
 All quantities printed in internal units (Hartrees-Bohrs-Radians)
 Mixed Optimization -- RFO/linear search
 Second derivative matrix not updated -- first step.
 ITU=  0
     Eigenvalues ---    0.00230   0.00277   0.00295   0.00350   0.00431
     Eigenvalues ---    0.00474   0.00939   0.01044   0.01049   0.01069
     Eigenvalues ---    0.01082   0.01141   0.01400   0.01555   0.01897
     Eigenvalues ---    0.02114   0.02256   0.02294   0.02571   0.02681
     Eigenvalues ---    0.03243   0.03909   0.04121   0.04696   0.04794
     Eigenvalues ---    0.04859   0.04944   0.05109   0.05182   0.05261
     Eigenvalues ---    0.05351   0.05954   0.06201   0.06473   0.06502
     Eigenvalues ---    0.06511   0.06717   0.07119   0.07540   0.08430
     Eigenvalues ---    0.09374   0.09635   0.10290   0.10809   0.11118
     Eigenvalues ---    0.11838   0.13057   0.13418   0.13466   0.14040
     Eigenvalues ---    0.14977   0.15988   0.16000   0.16000   0.16000
     Eigenvalues ---    0.16000   0.16118   0.16818   0.18882   0.21616
     Eigenvalues ---    0.21799   0.21991   0.22003   0.22052   0.22234
     Eigenvalues ---    0.22341   0.24992   0.24994   0.24998   0.25000
     Eigenvalues ---    0.25000   0.25000   0.26012   0.27206   0.28155
     Eigenvalues ---    0.28791   0.28911   0.29859   0.30453   0.32224
     Eigenvalues ---    0.33773   0.33801   0.34148   0.34175   0.34187
     Eigenvalues ---    0.34263   0.34411   0.34531   0.34538   0.34599
     Eigenvalues ---    0.34640   0.34653   0.35031   0.38383   0.38632
     Eigenvalues ---    0.39355   0.41551   0.41998   0.43494   0.45889
     Eigenvalues ---    0.45897   0.52619   0.53482   0.54073   0.58686
     Eigenvalues ---    0.66567   0.88597   0.92097   0.96673   1.00176
     Eigenvalues ---    1.82565
 Linear search not attempted -- first point.
 Maximum step size (   0.300) exceeded in Quadratic search.
    -- Step size scaled by   0.486
 Iteration  1 RMS(Cart)=  0.06668200 RMS(Int)=  0.00101439
 Iteration  2 RMS(Cart)=  0.00160705 RMS(Int)=  0.00030365
 Iteration  3 RMS(Cart)=  0.00000179 RMS(Int)=  0.00030365
 Iteration  4 RMS(Cart)=  0.00000000 RMS(Int)=  0.00030365
 Variable       Old X    -DE/DX   Delta X   Delta X   Delta X     New X
                                 (Linear)    (Quad)   (Total)
    R1        1.84011  -0.00052   0.00000  -0.00019  -0.00019   1.83992
    R2        2.51996   0.03458   0.00000   0.01203   0.01203   2.53199
    R3        2.88245  -0.00244   0.00000  -0.00107  -0.00107   2.88139
    R4        2.30001   0.01729   0.00000   0.00473   0.00473   2.30474
    R5        2.73456  -0.00255   0.00000  -0.00104  -0.00104   2.73352
    R6        2.06242   0.00139   0.00000   0.00058   0.00058   2.06301
    R7        2.07080   0.00831   0.00000   0.00351   0.00351   2.07431
    R8        2.56507   0.01412   0.00000   0.00510   0.00510   2.57017
    R9        1.90957   0.00017   0.00000   0.00007   0.00007   1.90963
   R10        2.91802  -0.00639   0.00000  -0.00285  -0.00285   2.91517
   R11        2.31981   0.00731   0.00000   0.00205   0.00205   2.32187
   R12        2.73811   0.00845   0.00000   0.00344   0.00344   2.74156
   R13        2.06443   0.00624   0.00000   0.00262   0.00262   2.06705
   R14        2.06641  -0.00104   0.00000  -0.00044  -0.00044   2.06598
   R15        2.55965   0.02989   0.00000   0.01075   0.01075   2.57041
   R16        1.90948   0.00444   0.00000   0.00170   0.00170   1.91118
   R17        2.90188  -0.00166   0.00000  -0.00073  -0.00073   2.90115
   R18        2.33586   0.00381   0.00000   0.00109   0.00109   2.33696
   R19        2.07667   0.00366   0.00000   0.00155   0.00155   2.07822
   R20        2.77596   0.04974   0.00000   0.01174   0.01198   2.78794
   R21        2.93801   0.02408   0.00000   0.00432   0.00400   2.94201
   R22        2.55946   0.17719   0.00000   0.05124   0.05253   2.61199
   R23        2.79675   0.07751   0.00000   0.01119   0.01036   2.80711
   R24        2.06332   0.00983   0.00000   0.00413   0.00413   2.06745
   R25        2.06889   0.00642   0.00000   0.00271   0.00271   2.07160
   R26        2.90128   0.01064   0.00000   0.00666   0.00632   2.90760
   R27        2.08754   0.43411   0.00000   0.11887   0.11977   2.20731
   R28        2.90442   0.06632   0.00000   0.02936   0.02936   2.93378
   R29        2.32172   0.18246   0.00000   0.05244   0.05244   2.37416
   R30        2.88949   0.40767   0.00000   0.10232   0.10146   2.99095
   R31        3.08889   0.30417   0.00000   0.11993   0.11938   3.20827
   R32        2.06225  -0.07367   0.00000   0.01801   0.01923   2.08148
   R33        2.07035   0.04639   0.00000   0.01958   0.01958   2.08993
   R34        1.21567   0.86025   0.00000   0.15924   0.15926   1.37494
   R35        2.07016   0.07356   0.00000   0.03104   0.03104   2.10120
   R36        2.06431  -0.00519   0.00000  -0.00218  -0.00218   2.06213
   R37        2.83736   0.00890   0.00000   0.00382   0.00382   2.84118
   R38        2.05625  -0.00223   0.00000  -0.00093  -0.00093   2.05532
   R39        2.06264   0.00489   0.00000   0.00205   0.00205   2.06470
   R40        1.96199   0.00806   0.00000   0.00320   0.00320   1.96519
   R41        1.93765   0.01458   0.00000   0.00569   0.00569   1.94335
   R42        1.95626   0.02543   0.00000   0.01005   0.01005   1.96631
    A1        1.89845  -0.01001   0.00000  -0.00502  -0.00502   1.89344
    A2        1.92187   0.00105   0.00000   0.00048   0.00048   1.92235
    A3        2.15335  -0.00067   0.00000  -0.00031  -0.00031   2.15304
    A4        2.20765  -0.00037   0.00000  -0.00017  -0.00017   2.20748
    A5        1.99913  -0.00485   0.00000  -0.00228  -0.00228   1.99685
    A6        1.89969   0.00300   0.00000   0.00148   0.00148   1.90117
    A7        1.85712   0.00566   0.00000   0.00294   0.00294   1.86006
    A8        1.91696  -0.00146   0.00000  -0.00091  -0.00091   1.91605
    A9        1.91002  -0.00103   0.00000  -0.00059  -0.00059   1.90943
   A10        1.87642  -0.00095   0.00000  -0.00044  -0.00044   1.87598
   A11        2.11988   0.00310   0.00000   0.00146   0.00146   2.12135
   A12        2.06946  -0.00069   0.00000  -0.00030  -0.00030   2.06916
   A13        2.09289  -0.00244   0.00000  -0.00118  -0.00118   2.09172
   A14        2.02048  -0.00382   0.00000  -0.00175  -0.00175   2.01873
   A15        2.13710   0.00089   0.00000   0.00041   0.00041   2.13751
   A16        2.12530   0.00299   0.00000   0.00138   0.00138   2.12668
   A17        1.92795   0.00442   0.00000   0.00211   0.00211   1.93006
   A18        1.92873  -0.00613   0.00000  -0.00310  -0.00310   1.92563
   A19        1.90868   0.00464   0.00000   0.00248   0.00248   1.91116
   A20        1.90651   0.00321   0.00000   0.00171   0.00171   1.90822
   A21        1.90326  -0.00647   0.00000  -0.00328  -0.00328   1.89998
   A22        1.88809   0.00019   0.00000   0.00002   0.00002   1.88811
   A23        2.08035   0.00775   0.00000   0.00365   0.00365   2.08400
   A24        2.04872  -0.00434   0.00000  -0.00207  -0.00207   2.04666
   A25        2.06575  -0.00277   0.00000  -0.00127  -0.00127   2.06449
   A26        2.02174  -0.00608   0.00000  -0.00279  -0.00279   2.01895
   A27        2.12050   0.00578   0.00000   0.00265   0.00265   2.12315
   A28        2.14089   0.00036   0.00000   0.00017   0.00017   2.14105
   A29        1.90100   0.01831   0.00000   0.00510   0.00506   1.90607
   A30        2.06075  -0.06446   0.00000  -0.01830  -0.01826   2.04249
   A31        1.94285  -0.00210   0.00000   0.00155   0.00150   1.94436
   A32        1.82463   0.00502   0.00000   0.00065   0.00060   1.82522
   A33        1.92336  -0.04109   0.00000  -0.01429  -0.01423   1.90913
   A34        1.80497   0.08353   0.00000   0.02468   0.02479   1.82976
   A35        2.21968   0.02535   0.00000   0.00738   0.00740   2.22708
   A36        1.96173  -0.00574   0.00000  -0.00384  -0.00387   1.95785
   A37        1.94884   0.01173   0.00000   0.00513   0.00528   1.95412
   A38        1.90929  -0.00840   0.00000  -0.00004   0.00001   1.90930
   A39        1.81105   0.00089   0.00000  -0.00506  -0.00543   1.80561
   A40        1.88546  -0.00132   0.00000  -0.00157  -0.00162   1.88384
   A41        1.98700  -0.02935   0.00000  -0.00733  -0.00709   1.97991
   A42        1.92103   0.02736   0.00000   0.00923   0.00921   1.93025
   A43        2.09133   0.04806   0.00000   0.02166   0.02188   2.11321
   A44        2.15648  -0.15327   0.00000  -0.03301  -0.03343   2.12306
   A45        1.89044   0.19564   0.00000   0.06507   0.06408   1.95451
   A46        2.03517   0.10548   0.00000   0.01193   0.01169   2.04687
   A47        1.79471  -0.04831   0.00000  -0.01108  -0.01099   1.78373
   A48        1.63727  -0.07251   0.00000  -0.02285  -0.02244   1.61483
   A49        1.91214   0.07109   0.00000   0.01074   0.01128   1.92342
   A50        1.91509   0.02862   0.00000   0.01246   0.01267   1.92776
   A51        2.43961  -0.07061   0.00000  -0.00713  -0.00698   2.43263
   A52        2.79913   0.21077   0.00000   0.04262   0.04235   2.84148
   A53        1.59957   0.00802   0.00000   0.00910   0.00913   1.60869
   A54        2.84895   0.11760   0.00000   0.03330   0.03280   2.88175
   A55        2.23833   0.06151   0.00000  -0.00211  -0.00226   2.23607
   A56        2.62290  -0.15057   0.00000  -0.01691  -0.01909   2.60382
   A57        0.78168  -0.00297   0.00000   0.01745   0.01733   0.79901
   A58        1.88422  -0.22020   0.00000  -0.05193  -0.05172   1.83250
   A59        1.79952  -0.01147   0.00000  -0.00474  -0.00430   1.79522
   A60        2.30725   0.01556   0.00000   0.00731   0.00662   2.31387
   A61        1.52607   0.00797   0.00000   0.00563   0.00567   1.53174
   A62        2.30617  -0.01310   0.00000  -0.00752  -0.00763   2.29854
   A63        1.92627  -0.01957   0.00000  -0.00109  -0.00134   1.92494
   A64        1.96233   0.03137   0.00000   0.01060   0.01039   1.97272
   A65        1.51076   0.01628   0.00000   0.00168   0.00180   1.51256
   A66        1.65084  -0.00556   0.00000  -0.00034   0.00038   1.65122
   A67        1.88386  -0.00614   0.00000  -0.00398  -0.00391   1.87994
   A68        1.83010   0.07003   0.00000   0.03344   0.03349   1.86359
   A69        2.06149  -0.02033   0.00000  -0.00940  -0.00949   2.05201
   A70        1.88572  -0.01151   0.00000  -0.00523  -0.00508   1.88065
   A71        1.87674  -0.01382   0.00000  -0.00546  -0.00549   1.87125
   A72        1.89018  -0.03489   0.00000  -0.01754  -0.01754   1.87264
   A73        1.91224   0.00973   0.00000   0.00374   0.00361   1.91586
   A74        1.84698   0.01338   0.00000   0.00682   0.00683   1.85381
   A75        1.89441   0.00047   0.00000   0.00015   0.00015   1.89455
   A76        1.99623  -0.01327   0.00000  -0.00669  -0.00669   1.98954
   A77        1.90331  -0.00460   0.00000  -0.00223  -0.00223   1.90108
   A78        1.87030   0.00191   0.00000   0.00111   0.00112   1.87142
   A79        1.94811   0.00281   0.00000   0.00121   0.00121   1.94932
    D1       -3.08814  -0.00183   0.00000  -0.00107  -0.00107  -3.08920
    D2        0.02754  -0.00160   0.00000  -0.00093  -0.00093   0.02661
    D3       -2.84110   0.00170   0.00000   0.00100   0.00100  -2.84010
    D4       -0.68800  -0.00132   0.00000  -0.00066  -0.00067  -0.68867
    D5        1.32940   0.00198   0.00000   0.00107   0.00108   1.33048
    D6        0.32742   0.00147   0.00000   0.00086   0.00086   0.32828
    D7        2.48051  -0.00156   0.00000  -0.00080  -0.00081   2.47971
    D8       -1.78527   0.00174   0.00000   0.00093   0.00094  -1.78433
    D9        1.61797  -0.00118   0.00000  -0.00065  -0.00065   1.61732
   D10       -1.47683  -0.00032   0.00000  -0.00015  -0.00015  -1.47698
   D11       -0.52583  -0.00049   0.00000  -0.00024  -0.00024  -0.52607
   D12        2.66256   0.00037   0.00000   0.00026   0.00026   2.66282
   D13       -2.58192   0.00213   0.00000   0.00118   0.00118  -2.58074
   D14        0.60647   0.00299   0.00000   0.00168   0.00168   0.60815
   D15       -3.01301  -0.00364   0.00000  -0.00213  -0.00213  -3.01514
   D16        0.10226  -0.00080   0.00000  -0.00045  -0.00045   0.10181
   D17        0.08117  -0.00446   0.00000  -0.00262  -0.00262   0.07855
   D18       -3.08675  -0.00161   0.00000  -0.00094  -0.00094  -3.08768
   D19        2.63939  -0.00088   0.00000  -0.00038  -0.00038   2.63901
   D20       -1.53198   0.00203   0.00000   0.00111   0.00111  -1.53088
   D21        0.54460   0.00142   0.00000   0.00079   0.00079   0.54538
   D22       -0.47607  -0.00367   0.00000  -0.00204  -0.00204  -0.47811
   D23        1.63574  -0.00076   0.00000  -0.00055  -0.00055   1.63519
   D24       -2.57087  -0.00137   0.00000  -0.00087  -0.00087  -2.57174
   D25       -2.42352  -0.00322   0.00000  -0.00176  -0.00175  -2.42528
   D26        1.16401  -0.00397   0.00000  -0.00217  -0.00217   1.16185
   D27        1.73468  -0.00053   0.00000  -0.00036  -0.00036   1.73432
   D28       -0.96097  -0.00128   0.00000  -0.00078  -0.00078  -0.96174
   D29       -0.32547   0.00114   0.00000   0.00052   0.00052  -0.32495
   D30       -3.02112   0.00038   0.00000   0.00011   0.00011  -3.02101
   D31       -2.89779   0.00285   0.00000   0.00169   0.00169  -2.89611
   D32        0.25548  -0.00216   0.00000  -0.00128  -0.00128   0.25420
   D33       -0.20647   0.00324   0.00000   0.00192   0.00192  -0.20455
   D34        2.94680  -0.00176   0.00000  -0.00105  -0.00105   2.94575
   D35        1.26905  -0.01098   0.00000  -0.00500  -0.00499   1.26406
   D36       -2.93852  -0.03394   0.00000  -0.01264  -0.01264  -2.95116
   D37       -0.85515   0.02952   0.00000   0.00847   0.00847  -0.84668
   D38       -1.88437  -0.00587   0.00000  -0.00198  -0.00196  -1.88634
   D39        0.19124  -0.02883   0.00000  -0.00961  -0.00962   0.18162
   D40        2.27461   0.03463   0.00000   0.01150   0.01149   2.28610
   D41        1.34068  -0.10042   0.00000  -0.02869  -0.02863   1.31206
   D42        2.22083   0.07102   0.00000   0.01884   0.01881   2.23964
   D43       -2.82720  -0.11316   0.00000  -0.03304  -0.03294  -2.86014
   D44       -1.94705   0.05829   0.00000   0.01448   0.01450  -1.93255
   D45       -0.81343  -0.12311   0.00000  -0.03868  -0.03841  -0.85184
   D46        0.06672   0.04834   0.00000   0.00884   0.00903   0.07575
   D47        1.45943  -0.00134   0.00000  -0.00008  -0.00008   1.45935
   D48       -0.62673  -0.00157   0.00000  -0.00133  -0.00140  -0.62813
   D49       -2.67638  -0.02979   0.00000  -0.00933  -0.00919  -2.68557
   D50       -0.65172   0.00471   0.00000   0.00212   0.00212  -0.64960
   D51       -2.73788   0.00448   0.00000   0.00087   0.00080  -2.73708
   D52        1.49565  -0.02374   0.00000  -0.00713  -0.00699   1.48866
   D53       -2.59384  -0.02533   0.00000  -0.00495  -0.00474  -2.59858
   D54        1.60318  -0.02556   0.00000  -0.00620  -0.00606   1.59712
   D55       -0.44647  -0.05378   0.00000  -0.01419  -0.01385  -0.46032
   D56       -0.28009  -0.06467   0.00000  -0.02890  -0.02827  -0.30835
   D57        2.83942  -0.04791   0.00000   0.00360   0.00437   2.84379
   D58        0.33995  -0.08094   0.00000  -0.01296  -0.01302   0.32693
   D59       -2.76517  -0.06234   0.00000  -0.00997  -0.01067  -2.77584
   D60        0.70242   0.19079   0.00000   0.03420   0.03351   0.73593
   D61        2.76815  -0.01788   0.00000  -0.01520  -0.01528   2.75287
   D62        0.65598  -0.02567   0.00000  -0.00291  -0.00332   0.65265
   D63        0.17936   0.02005   0.00000   0.00339   0.00361   0.18297
   D64       -1.26949  -0.00697   0.00000  -0.00291  -0.00308  -1.27257
   D65        3.05827  -0.00194   0.00000  -0.00040  -0.00066   3.05762
   D66        2.77804  -0.02708   0.00000  -0.00410  -0.00438   2.77366
   D67        2.30142   0.01863   0.00000   0.00220   0.00256   2.30398
   D68        0.85257  -0.00838   0.00000  -0.00410  -0.00414   0.84844
   D69       -1.10285  -0.00335   0.00000  -0.00159  -0.00171  -1.10456
   D70       -1.38548  -0.02901   0.00000  -0.00441  -0.00465  -1.39012
   D71       -1.86210   0.01671   0.00000   0.00189   0.00229  -1.85981
   D72        2.97224  -0.01031   0.00000  -0.00441  -0.00440   2.96784
   D73        1.01682  -0.00528   0.00000  -0.00190  -0.00198   1.01484
   D74        0.72485   0.01238   0.00000   0.00935   0.00897   0.73382
   D75        0.88133   0.13113   0.00000   0.02815   0.02861   0.90994
   D76       -2.29926   0.01572   0.00000   0.01039   0.00978  -2.28947
   D77        2.04586   0.00611   0.00000   0.01608   0.01666   2.06252
   D78       -0.04281  -0.01735   0.00000   0.00323   0.00386  -0.03896
   D79       -2.22418  -0.00488   0.00000   0.00995   0.01055  -2.21363
   D80        0.63676   0.05607   0.00000   0.02934   0.02908   0.66584
   D81       -1.45192   0.03261   0.00000   0.01649   0.01628  -1.43564
   D82        2.64990   0.04508   0.00000   0.02320   0.02297   2.67287
   D83       -1.07515  -0.00633   0.00000  -0.01363  -0.01403  -1.08918
   D84        3.11936  -0.02979   0.00000  -0.02648  -0.02683   3.09253
   D85        0.93799  -0.01732   0.00000  -0.01977  -0.02014   0.91786
   D86       -0.60531   0.05222   0.00000   0.00509   0.00526  -0.60004
   D87        1.00295   0.05176   0.00000   0.00918   0.00951   1.01246
   D88        3.10739   0.05143   0.00000   0.01050   0.01061   3.11800
   D89        0.44610   0.01997   0.00000   0.00166   0.00120   0.44731
   D90        2.05436   0.01950   0.00000   0.00575   0.00545   2.05981
   D91       -2.12438   0.01918   0.00000   0.00708   0.00655  -2.11783
   D92        2.40981  -0.06281   0.00000  -0.01958  -0.01976   2.39005
   D93       -2.26511  -0.06328   0.00000  -0.01549  -0.01551  -2.28063
   D94       -0.16067  -0.06360   0.00000  -0.01416  -0.01441  -0.17509
   D95       -2.84524   0.00842   0.00000   0.00062   0.00048  -2.84475
   D96       -1.23698   0.00796   0.00000   0.00471   0.00473  -1.23225
   D97        0.86746   0.00763   0.00000   0.00604   0.00583   0.87329
   D98       -1.08759  -0.00219   0.00000  -0.00154  -0.00163  -1.08922
   D99        0.95324  -0.00034   0.00000  -0.00050  -0.00058   0.95265
   D100       3.14104  -0.00598   0.00000  -0.00368  -0.00375   3.13729
   D101       1.12056   0.00709   0.00000   0.00390   0.00389   1.12445
   D102      -3.12180   0.00893   0.00000   0.00493   0.00493  -3.11686
   D103      -0.93399   0.00330   0.00000   0.00176   0.00177  -0.93222
   D104      -3.09764  -0.00768   0.00000  -0.00408  -0.00400  -3.10164
   D105      -1.05681  -0.00584   0.00000  -0.00304  -0.00296  -1.05977
   D106       1.13100  -0.01147   0.00000  -0.00622  -0.00613   1.12487
         Item               Value     Threshold  Converged?
 Maximum Force            0.860248     0.015000     NO 
 RMS     Force            0.086503     0.010000     NO 
 Maximum Displacement     0.388967     0.060000     NO 
 RMS     Displacement     0.067047     0.040000     NO 
 GradGradGradGradGradGradGradGradGradGradGradGradGradGradGradGradGradGrad

                    Distance matrix (angstroms):
                    1          2          3          4          5
     1  H    0.000000
     2  O    0.973643   0.000000
     3  C    1.889579   1.339871   0.000000
     4  C    3.204172   2.350995   1.524764   0.000000
     5  O    2.321348   2.253869   1.219617   2.454298   0.000000
     6  N    4.362176   3.627494   2.498073   1.446519   2.891450
     7  H    3.414014   2.473827   2.143983   1.091696   3.225926
     8  H    3.550933   2.710319   2.117692   1.097677   3.012414
     9  C    5.071085   4.366703   3.345905   2.449633   3.658337
    10  H    4.885901   4.227162   3.006127   2.123912   3.146008
    11  C    6.375408   5.757292   4.606544   3.822290   4.612248
    12  O    5.000453   4.286730   3.566036   2.785758   4.062871
    13  N    6.977734   6.454900   5.395548   4.840006   5.300012
    14  H    7.165254   6.463027   5.349014   4.326586   5.479955
    15  H    6.359982   5.835447   4.566502   3.976178   4.331632
    16  C    7.735513   7.333739   6.207989   5.857097   5.865264
    17  H    7.362799   6.791528   5.861475   5.211231   5.921366
    18  C    8.831750   8.472127   7.448156   7.153034   7.116510
    19  O    7.764570   7.429724   6.204214   5.964518   5.677156
    20  H    9.604238   9.164059   8.138384   7.665239   7.908656
    21  N    9.691666   9.442218   8.392491   8.267280   7.883887
    22  C    8.464852   8.152389   7.315069   7.145062   7.072640
    23  C    9.576916   9.465756   8.468786   8.590911   7.819073
    24  C    9.996613   9.841856   8.919703   8.963076   8.391282
    25  H    8.509166   8.106792   7.350850   7.024151   7.289634
    26  H    7.523362   7.283835   6.487417   6.494008   6.189288
    27  C    9.683349   9.459702   8.662729   8.609983   8.328024
    28  C    8.279633   8.268100   7.344546   7.683624   6.624257
    29  O   10.656855  10.602326   9.618918   9.803921   8.907094
    30  H   10.207196  10.004303   9.161203   9.124590   8.760086
    31  H   10.992114  10.871825   9.934619  10.007830   9.347483
    32  H   10.306736   9.993033   9.171513   8.942437   8.929476
    33  H   10.062963   9.898013   9.211077   9.254454   8.888827
    34  N    8.563099   8.633428   7.896933   8.359241   7.237896
    35  H    7.323457   7.254656   6.316048   6.610534   5.659353
    36  H    8.377695   8.452399   7.500082   7.967108   6.636339
    37  H    8.688090   8.676133   7.982574   8.315586   7.466446
    38  H    9.505323   9.611734   8.870735   9.354942   8.162537
    39  H    7.916360   8.077292   7.448526   8.071592   6.770322
                    6          7          8          9         10
     6  N    0.000000
     7  H    2.086411   0.000000
     8  H    2.086205   1.765451   0.000000
     9  C    1.360074   2.593789   3.288145   0.000000
    10  H    1.010535   2.957571   2.369527   2.058885   0.000000
    11  C    2.459050   4.112813   4.523222   1.542641   2.584223
    12  O    2.270188   2.454999   3.741396   1.228680   3.165590
    13  N    3.639285   4.971885   5.696485   2.461337   3.919733
    14  H    2.960281   4.542848   4.857451   2.179157   2.958447
    15  H    2.576436   4.523947   4.578284   2.168181   2.336946
    16  C    4.620561   6.128756   6.694104   3.626547   4.710917
    17  H    4.129812   5.133575   6.092077   2.809869   4.559066
    18  C    5.999083   7.288273   8.055073   4.872975   6.190101
    19  O    4.687327   6.441119   6.700741   3.999620   4.539674
    20  H    6.450781   7.738312   8.517197   5.269916   6.620818
    21  N    7.117862   8.502732   9.158990   6.111580   7.206236
    22  C    6.219360   7.104493   8.151753   5.007038   6.634988
    23  C    7.565986   8.878955   9.514105   6.669905   7.666281
    24  C    7.965244   9.116737   9.932923   6.925979   8.176068
    25  H    6.151309   6.832500   8.024904   4.845119   6.667353
    26  H    5.693902   6.488567   7.535518   4.580119   6.158342
    27  C    7.710255   8.575914   9.630387   6.528753   8.094798
    28  C    6.834338   7.999480   8.634752   6.065670   7.002337
    29  O    8.786798  10.112186  10.718374   7.919115   8.849832
    30  H    8.171694   9.148083  10.126631   7.021594   8.487898
    31  H    8.984996  10.195677  10.960877   7.975637   9.139760
    32  H    7.965864   8.856305   9.929739   6.712163   8.337524
    33  H    8.470063   9.153997  10.307723   7.293226   8.924712
    34  N    7.689376   8.541370   9.375301   6.866582   8.005741
    35  H    5.777723   6.913034   7.574672   5.006902   5.998053
    36  H    7.145010   8.404760   8.856558   6.552956   7.201755
    37  H    7.639361   8.375885   9.366145   6.678763   8.044691
    38  H    8.656672   9.560477  10.358086   7.840475   8.926363
    39  H    7.566031   8.247145   9.090431   6.848305   7.934452
                   11         12         13         14         15
    11  C    0.000000
    12  O    2.426887   0.000000
    13  N    1.450769   2.777153   0.000000
    14  H    1.093836   2.981499   2.086129   0.000000
    15  H    1.093267   3.239680   2.079764   1.771430   0.000000
    16  C    2.427464   4.045568   1.360201   3.003610   2.502349
    17  H    2.114678   2.738262   1.011354   2.448047   2.977694
    18  C    3.794649   5.005382   2.452897   4.230869   4.025385
    19  O    2.745151   4.688106   2.268186   3.339172   2.288780
    20  H    4.089362   5.388293   2.827523   4.249022   4.442372
    21  N    4.992212   6.323864   3.769045   5.466548   4.975964
    22  C    4.352421   4.774080   2.915535   4.926581   4.783483
    23  C    5.725227   6.855283   4.560319   6.378852   5.579698
    24  C    6.031126   6.934840   4.706011   6.616805   6.088354
    25  H    4.329533   4.422416   2.936295   4.766998   4.984300
    26  H    4.162481   4.320853   2.856508   4.935942   4.514106
    27  C    5.830519   6.279248   4.395208   6.378385   6.162084
    28  C    5.412945   6.208619   4.382056   6.270043   5.214617
    29  O    6.948249   8.107227   5.797347   7.568207   6.751651
    30  H    6.214424   6.860737   4.797452   6.737099   6.457927
    31  H    7.011896   8.026807   5.720012   7.553036   6.998682
    32  H    5.906680   6.457876   4.464224   6.274624   6.339288
    33  H    6.743417   6.914743   5.316893   7.330147   7.105829
    34  N    6.438679   6.765222   5.312209   7.326389   6.393558
    35  H    4.460548   5.147445   3.495210   5.381667   4.313022
    36  H    5.903022   6.829900   5.062866   6.785389   5.513809
    37  H    6.273122   6.435629   5.023088   7.099154   6.401374
    38  H    7.325371   7.769626   6.174968   8.175814   7.232297
    39  H    6.637807   6.690045   5.633879   7.604588   6.581563
                   16         17         18         19         20
    16  C    0.000000
    17  H    2.043712   0.000000
    18  C    1.535222   2.562781   0.000000
    19  O    1.236664   3.151593   2.436410   0.000000
    20  H    2.162723   2.694716   1.099746   3.067684   0.000000
    21  N    2.567453   4.020140   1.475314   2.893956   2.050053
    22  C    2.554431   2.689261   1.556845   3.583586   2.183981
    23  C    3.376564   4.909863   2.564288   3.458577   3.362733
    24  C    3.683494   4.813228   2.457150   4.108859   3.067652
    25  H    3.021920   2.344973   2.212409   4.203481   2.421376
    26  H    2.622304   2.829284   2.181512   3.500777   3.056637
    27  C    3.774776   4.187515   2.430190   4.600045   2.873751
    28  C    3.426003   4.839671   3.111655   3.436143   4.153030
    29  O    4.579403   6.122511   3.681434   4.554917   4.308465
    30  H    4.003637   4.671205   2.590596   4.696524   2.978688
    31  H    4.611739   5.845199   3.385166   4.886629   3.823557
    32  H    3.922769   4.095774   2.447146   4.854856   2.429032
    33  H    4.793016   5.044422   3.509255   5.607062   3.926904
    34  N    4.569193   5.566790   4.002920   4.812595   4.978297
    35  H    2.741579   4.004483   2.794065   2.855070   3.893554
    36  H    4.055078   5.657994   3.975790   3.736803   4.998469
    37  H    4.410190   5.093906   3.631044   4.913118   4.510704
    38  H    5.309088   6.425801   4.596468   5.471293   5.491466
    39  H    5.063046   5.913253   4.721947   5.272336   5.742992
                   21         22         23         24         25
    21  N    0.000000
    22  C    2.403469   0.000000
    23  C    1.382204   2.945743   0.000000
    24  C    1.485460   2.440567   1.168059   0.000000
    25  H    3.321832   1.094047   4.017823   3.418995   0.000000
    26  H    2.909397   1.096242   3.060370   2.836782   1.771260
    27  C    2.388588   1.538636   2.583786   1.582742   2.214403
    28  C    2.556586   3.081673   1.552490   2.265468   4.142896
    29  O    2.304547   4.014003   1.256353   1.697741   5.050956
    30  H    2.133071   2.100375   2.244051   1.101473   2.845356
    31  H    2.139587   3.507735   1.638708   1.105945   4.426255
    32  H    2.607677   1.862831   3.249882   2.227555   2.119867
    33  H    3.380952   2.406632   3.281686   2.246584   2.867849
    34  N    3.517447   3.390289   2.453185   2.582155   4.340169
    35  H    2.778418   2.710187   2.270735   2.834996   3.661046
    36  H    3.273619   4.142174   2.153693   3.108515   5.198912
    37  H    3.363493   2.698978   2.618799   2.303963   3.543074
    38  H    3.818479   4.096979   2.583205   2.680226   5.066287
    39  H    4.422700   3.989236   3.402681   3.593500   4.833763
[...]
    34  N    5.390762   7.547788   4.908416   5.049755   5.342679
    35  H    4.070226   6.448387   3.323282   4.148170   3.956202
    36  H    3.298279   5.408624   2.912014   2.939671   3.451850
    37  H    5.428662   7.605047   4.162527   5.666564   5.617147
    38  H    5.780981   7.758411   5.309533   5.290944   5.885004
    39  H    5.345834   7.453021   5.125852   4.943319   5.152524
                   16         17         18         19         20
    16  C    0.000000
    17  H    1.934252   0.000000
    18  C    1.565951   2.247712   0.000000
    19  O    1.250450   3.122494   2.491471   0.000000
    20  H    2.079191   2.864538   1.118050   2.739705   0.000000
    21  N    2.479531   1.797686   1.450741   3.664386   2.096555
    22  C    2.532155   3.608581   1.549436   2.922747   2.114563
    23  C    4.154851   2.880931   3.506748   5.315326   4.377162
    24  C    3.633164   2.882850   2.503055   4.748980   3.258134
    25  H    2.489448   4.041194   2.144572   2.373478   2.520697
    26  H    3.004879   3.781879   2.190208   3.468688   3.041486
    27  C    3.859781   4.784762   2.590424   4.192682   2.620974
    28  C    3.950786   2.913270   3.805723   4.942413   4.846286
    29  O    5.144369   3.582692   4.514463   6.351614   5.251026
    30  H    4.378115   4.879659   2.895553   4.950421   2.956033
    31  H    4.547208   3.727923   3.253751   5.660890   3.744595
    32  H    3.999951   5.061028   2.844430   4.199806   2.424429
    33  H    4.653060   5.705775   3.540751   4.805017   3.652198
    34  N    5.382431   4.353518   5.209688   6.299329   6.262564
    35  H    3.447830   2.988222   3.340707   4.280415   4.449814
    36  H    3.700473   2.433095   3.924076   4.682431   4.890168
    37  H    3.824457   3.542948   2.678522   4.760723   3.535989
    38  H    5.925898   4.617485   5.678339   6.942823   6.659858
    39  H    5.682510   4.732576   5.766630   6.486428   6.839247
                   21         22         23         24         25
    21  N    0.000000
    22  C    2.630568   0.000000
    23  C    2.315938   4.152406   0.000000
    24  C    1.438043   3.006860   1.501646   0.000000
    25  H    3.466585   1.096273   5.024549   4.016286   0.000000
    26  H    2.846283   1.098506   3.712114   2.770336   1.755222
    27  C    3.413498   1.536189   4.960763   3.558759   2.152534
    28  C    3.045993   4.295838   1.535830   2.595606   4.920374
    29  O    3.159792   5.290582   1.228568   2.413912   6.192406
    30  H    3.244344   2.211757   4.561473   3.087650   3.093627
    31  H    2.149292   3.703419   2.123328   1.112331   4.776965
    32  H    3.801480   2.176203   5.673322   4.246974   2.489909
    33  H    4.388756   2.187875   5.682690   4.346781   2.501311
    34  N    4.413963   5.498463   2.426195   3.657116   6.123772
    35  H    2.990910   3.527878   2.177802   2.641031   4.042469
    36  H    3.208225   4.694144   2.161526   3.209978   5.188262
    37  H    2.175261   2.564734   2.123521   1.114028   3.569857
    38  H    4.667231   6.133300   2.453314   3.868561   6.843981
    39  H    5.101347   6.056903   3.301460   4.524225   6.543080
                   26         27         28         29         30
    26  H    0.000000
    27  C    2.173051   0.000000
    28  C    3.671029   5.437904   0.000000
    29  O    4.908632   5.972671   2.380346   0.000000
    30  H    2.582225   1.100283   5.308465   5.440300   0.000000
    31  H    3.570848   3.835427   3.500622   2.552686   3.075964
    32  H    3.082993   1.098209   6.207597   6.623483   1.770903
    33  H    2.504980   1.098773   6.031889   6.731222   1.769330
    34  N    4.700064   6.539634   1.475805   2.802628   6.323542
    35  H    2.795666   4.768581   1.095540   3.270927   4.807618
    36  H    4.250353   5.959566   1.104935   2.760247   5.925697
    37  H    2.018172   3.081834   2.759077   3.171453   2.688121
    38  H    5.416485   7.084372   2.013064   2.343388   6.745755
    39  H    5.251944   7.224401   2.055589   3.656146   7.120363
                   31         32         33         34         35
    31  H    0.000000
    32  H    4.447487   0.000000
    33  H    4.617786   1.773643   0.000000
    34  N    4.349006   7.411837   6.995657   0.000000
    35  H    3.679255   5.584701   5.254764   2.120202   0.000000
    36  H    4.128885   6.596692   6.644001   2.159876   1.770089
    37  H    1.783503   3.982725   3.648681   3.646022   2.436968
    38  H    4.368219   7.915251   7.618329   1.021600   2.923427
    39  H    5.297476   8.079719   7.647585   1.020324   2.536205
                   36         37         38         39
    36  H    0.000000
    37  H    3.584684   0.000000
    38  H    2.494555   4.076668   0.000000
    39  H    2.348208   4.488692   1.633265   0.000000
 Framework group  C1[X(C11H19N4O5)]
 Deg. of freedom   111
                         Standard orientation:                         
 ---------------------------------------------------------------------
 Center     Atomic      Atomic             Coordinates (Angstroms)
 Number     Number       Type             X           Y           Z
 ---------------------------------------------------------------------
      1          1           0       -6.776105   -0.977244    0.233388
      2          8           0       -6.194249   -0.548100   -0.424275
      3          6           0       -5.029950   -0.299298    0.243799
      4          6           0       -4.026475    0.363043   -0.679095
      5          8           0       -4.880011   -0.597348    1.408503
      6          7           0       -2.742008    0.545271   -0.067491
      7          1           0       -3.985708   -0.232854   -1.608253
      8          1           0       -4.403928    1.350351   -0.973491
      9          6           0       -2.035143    1.689581   -0.289891
     10          1           0       -2.241803   -0.242618    0.380688
     11          6           0       -0.622775    1.666575    0.319057
     12          8           0       -2.484646    2.671142   -0.882437
     13          7           0        0.237199    0.612510   -0.169060
     14          1           0       -0.164704    2.630720    0.087320
     15          1           0       -0.727935    1.585133    1.411699
     16          6           0        0.150930   -0.684979    0.161478
     17          1           0        1.141858    0.730372   -0.708105
     18          6           0        1.328455   -1.497453   -0.475330
     19          8           0       -0.784862   -1.201278    0.810594
     20          1           0        0.776746   -2.054145   -1.272667
     21          7           0        2.280412   -0.602675   -1.106042
     22          6           0        1.760262   -2.607603    0.515560
     23          6           0        4.004800    0.766826   -0.388736
     24          6           0        3.670240   -0.654209   -0.740403
     25          1           0        0.877375   -2.868707    1.110666
     26          1           0        2.504641   -2.220795    1.224781
     27          6           0        2.289321   -3.882219   -0.159219
     28          6           0        3.469927    1.309950    0.944568
     29          8           0        4.606783    1.535426   -1.134558
     30          1           0        3.180386   -3.702508   -0.779161
     31          1           0        4.348273   -0.967447   -1.564681
     32          1           0        1.519275   -4.315506   -0.811412
     33          1           0        2.561324   -4.642331    0.586132
     34          7           0        4.596337    1.968191    1.634436
     35          1           0        3.072453    0.495917    1.560663
     36          1           0        2.631904    1.999578    0.737173
     37          1           0        3.927353   -1.288770    0.138393
     38          1           0        5.057949    2.547050    0.930517
     39          1           0        4.235408    2.610709    2.340101
 ---------------------------------------------------------------------
 Rotational constants (GHZ):           0.5330522           0.1447756           0.1245712

 **********************************************************************

            Population analysis using the SCF density.

 **********************************************************************

 Orbital symmetries:
       Occupied  (A) (A) (A) (A) (A) (A) (A) (A) (A) (A) (A) (A)
                 (A) (A) (A) (A) (A) (A) (A) (A) (A) (A) (A) (A)
                 (A) (A) (A) (A) (A) (A) (A) (A) (A) (A) (A) (A)
                 (A) (A) (A) (A) (A) (A) (A) (A) (A) (A) (A) (A)
                 (A) (A) (A) (A) (A) (A) (A) (A) (A) (A) (A) (A)
                 (A) (A) (A) (A) (A) (A) (A) (A) (A) (A) (A) (A)
                 (A) (A) (A) (A) (A)
       Virtual   (A) (A) (A) (A) (A) (A) (A) (A) (A) (A) (A) (A)
                 (A) (A) (A) (A) (A) (A) (A) (A) (A) (A) (A) (A)
                 (A) (A) (A) (A) (A) (A) (A) (A) (A) (A) (A) (A)
                 (A) (A) (A) (A) (A) (A) (A) (A) (A) (A) (A) (A)
                 (A) (A) (A) (A) (A) (A) (A) (A) (A) (A) (A) (A)
                 (A) (A) (A) (A) (A) (A) (A) (A) (A) (A) (A) (A)
                 (A) (A) (A) (A) (A) (A) (A) (A) (A) (A) (A) (A)
                 (A) (A) (A) (A) (A) (A) (A) (A) (A) (A) (A) (A)
                 (A) (A) (A) (A) (A) (A) (A) (A) (A) (A) (A) (A)
                 (A) (A) (A) (A) (A) (A) (A) (A) (A) (A) (A) (A)
                 (A) (A) (A) (A) (A) (A) (A) (A) (A) (A) (A) (A)
                 (A) (A) (A) (A) (A) (A) (A) (A) (A) (A) (A) (A)
                 (A) (A) (A) (A) (A) (A) (A) (A) (A) (A) (A) (A)
                 (A) (A) (A) (A) (A) (A) (A) (A) (A) (A) (A) (A)
                 (A) (A) (A) (A) (A) (A) (A) (A) (A) (A) (A) (A)
                 (A) (A) (A) (A) (A) (A) (A) (A) (A) (A) (A) (A)
                 (A) (A) (A) (A) (A) (A) (A) (A) (A) (A) (A) (A)
                 (A) (A) (A) (A) (A) (A) (A) (A) (A) (A) (A) (A)
                 (A) (A) (A) (A) (A) (A) (A) (A) (A) (A) (A) (A)
                 (A) (A) (A) (A) (A) (A) (A) (A) (A) (A) (A) (A)
                 (A) (A) (A) (A) (A) (A) (A) (A) (A) (A) (A) (A)
                 (A) (A) (A) (A) (A) (A) (A) (A) (A)
 The electronic state is 1-A.
 Alpha  occ. eigenvalues --  -19.12285 -19.06473 -19.00928 -18.98843 -18.98735
 Alpha  occ. eigenvalues --  -14.24520 -14.21877 -14.19773 -14.10264 -10.24467
 Alpha  occ. eigenvalues --  -10.17921 -10.14564 -10.14358 -10.11835 -10.11796
 Alpha  occ. eigenvalues --  -10.08386 -10.06946 -10.06355 -10.05332 -10.05163
 Alpha  occ. eigenvalues --   -1.02886  -0.93842  -0.92504  -0.89639  -0.88484
 Alpha  occ. eigenvalues --   -0.81637  -0.79141  -0.75714  -0.70749  -0.66495
 Alpha  occ. eigenvalues --   -0.63928  -0.61592  -0.57780  -0.54692  -0.52993
 Alpha  occ. eigenvalues --   -0.49659  -0.47751  -0.45469  -0.42612  -0.41316
 Alpha  occ. eigenvalues --   -0.40851  -0.39824  -0.39412  -0.39043  -0.37563
 Alpha  occ. eigenvalues --   -0.36059  -0.35478  -0.33583  -0.33093  -0.32691
 Alpha  occ. eigenvalues --   -0.32430  -0.31348  -0.30579  -0.30091  -0.29239
 Alpha  occ. eigenvalues --   -0.29042  -0.28521  -0.27958  -0.26756  -0.25773
 Alpha  occ. eigenvalues --   -0.24794  -0.24529  -0.24416  -0.23169  -0.22147
 Alpha  occ. eigenvalues --   -0.21440  -0.20734  -0.20072  -0.19321  -0.15936
 Alpha  occ. eigenvalues --   -0.14989  -0.13461  -0.12498  -0.11870  -0.10086
 Alpha  occ. eigenvalues --   -0.06659  -0.00648
 Alpha virt. eigenvalues --    0.08702   0.12749   0.13183   0.14293   0.15543
 Alpha virt. eigenvalues --    0.19861   0.21006   0.21538   0.21797   0.23040
 Alpha virt. eigenvalues --    0.24786   0.25958   0.26366   0.26542   0.27481
 Alpha virt. eigenvalues --    0.28052   0.28222   0.29606   0.30177   0.30458
 Alpha virt. eigenvalues --    0.30798   0.31913   0.32274   0.32940   0.33669
 Alpha virt. eigenvalues --    0.34994   0.36289   0.36502   0.37484   0.37918
 Alpha virt. eigenvalues --    0.38306   0.38999   0.40351   0.42871   0.43383
 Alpha virt. eigenvalues --    0.44398   0.46353   0.46931   0.50059   0.50915
 Alpha virt. eigenvalues --    0.52372   0.58144   0.60549   0.62055   0.62522
 Alpha virt. eigenvalues --    0.63216   0.64069   0.64996   0.66047   0.66876
 Alpha virt. eigenvalues --    0.67444   0.68434   0.69518   0.70859   0.71412
 Alpha virt. eigenvalues --    0.73133   0.73344   0.74738   0.75321   0.76423
 Alpha virt. eigenvalues --    0.76945   0.77643   0.78671   0.78970   0.79958
 Alpha virt. eigenvalues --    0.80340   0.81725   0.82809   0.83017   0.83598
 Alpha virt. eigenvalues --    0.83972   0.85518   0.87640   0.87898   0.88719
 Alpha virt. eigenvalues --    0.90486   0.90566   0.91723   0.93138   0.93712
 Alpha virt. eigenvalues --    0.94658   0.95169   0.95958   0.96217   0.96827
 Alpha virt. eigenvalues --    0.97312   0.99018   0.99428   1.00310   1.00361
 Alpha virt. eigenvalues --    1.00559   1.01319   1.01411   1.01978   1.03296
 Alpha virt. eigenvalues --    1.03667   1.04299   1.05036   1.05539   1.06717
 Alpha virt. eigenvalues --    1.07050   1.07563   1.09512   1.09909   1.11325
 Alpha virt. eigenvalues --    1.12355   1.12704   1.13829   1.14876   1.16876
 Alpha virt. eigenvalues --    1.17760   1.18962   1.19482   1.20208   1.21522
 Alpha virt. eigenvalues --    1.22303   1.24404   1.25015   1.26437   1.27836
 Alpha virt. eigenvalues --    1.29728   1.32691   1.33637   1.37267   1.38368
 Alpha virt. eigenvalues --    1.40278   1.41179   1.42883   1.45590   1.46776
 Alpha virt. eigenvalues --    1.49530   1.51913   1.52432   1.55220   1.55829
 Alpha virt. eigenvalues --    1.57987   1.59889   1.60490   1.61650   1.64096
 Alpha virt. eigenvalues --    1.66436   1.67424   1.68545   1.70024   1.72938
 Alpha virt. eigenvalues --    1.74461   1.76614   1.77060   1.77940   1.79517
 Alpha virt. eigenvalues --    1.80251   1.81473   1.84300   1.85518   1.86639
 Alpha virt. eigenvalues --    1.86748   1.88508   1.89658   1.90448   1.91729
 Alpha virt. eigenvalues --    1.92298   1.92788   1.93163   1.94685   1.96614
 Alpha virt. eigenvalues --    1.98294   1.99536   2.00065   2.00751   2.03032
 Alpha virt. eigenvalues --    2.03381   2.04234   2.04898   2.07002   2.08174
 Alpha virt. eigenvalues --    2.08623   2.08928   2.10835   2.11340   2.11819
 Alpha virt. eigenvalues --    2.14281   2.14433   2.16520   2.18045   2.19149
 Alpha virt. eigenvalues --    2.19581   2.22323   2.22580   2.24574   2.25157
 Alpha virt. eigenvalues --    2.26038   2.29412   2.31225   2.33867   2.35520
 Alpha virt. eigenvalues --    2.37995   2.39067   2.42902   2.43604   2.44737
 Alpha virt. eigenvalues --    2.45643   2.47580   2.47781   2.49752   2.50614
 Alpha virt. eigenvalues --    2.51401   2.51703   2.52686   2.55135   2.56245
 Alpha virt. eigenvalues --    2.58283   2.60863   2.61318   2.63125   2.63948
 Alpha virt. eigenvalues --    2.67771   2.69277   2.71837   2.75235   2.76584
 Alpha virt. eigenvalues --    2.76841   2.78626   2.79840   2.81073   2.83723
 Alpha virt. eigenvalues --    2.85904   2.88057   2.91922   2.93622   2.98542
 Alpha virt. eigenvalues --    2.99551   3.01263   3.05213   3.08427   3.10970
 Alpha virt. eigenvalues --    3.11438   3.14830   3.16932   3.17998   3.25329
 Alpha virt. eigenvalues --    3.30420   3.86867   3.89321   4.06598   4.13577
 Alpha virt. eigenvalues --    4.14817   4.16783   4.19011   4.21844   4.28747
 Alpha virt. eigenvalues --    4.31764   4.32095   4.37105   4.45587   4.51054
 Alpha virt. eigenvalues --    4.53728   4.56374   4.59744   4.67842   4.75193
 Alpha virt. eigenvalues --    4.85867
          Condensed to atoms (all electrons):
 Mulliken charges:
               1
     1  H    0.397961
     2  O   -0.577829
     3  C    0.563007
     4  C   -0.197513
     5  O   -0.455847
     6  N   -0.599299
     7  H    0.172732
     8  H    0.206472
     9  C    0.576819
    10  H    0.390359
    11  C   -0.213549
    12  O   -0.542844
    13  N   -0.588458
    14  H    0.158783
    15  H    0.156274
    16  C    0.562136
    17  H    0.355602
    18  C    0.021804
    19  O   -0.606054
    20  H    0.095292
    21  N   -0.623648
    22  C   -0.266592
    23  C    0.443890
    24  C   -0.138815
    25  H    0.142978
    26  H    0.119156
    27  C   -0.441403
    28  C   -0.198714
    29  O   -0.519926
    30  H    0.146490
    31  H    0.067023
    32  H    0.125372
    33  H    0.106779
    34  N   -0.733725
    35  H    0.134736
    36  H    0.118285
    37  H    0.078600
    38  H    0.295042
    39  H    0.268622
 Sum of Mulliken charges =  -1.00000
 Mulliken charges with hydrogens summed into heavy atoms:
               1
     2  O   -0.179868
     3  C    0.563007
     4  C    0.181691
     5  O   -0.455847
     6  N   -0.208940
     9  C    0.576819
    11  C    0.101508
    12  O   -0.542844
    13  N   -0.232856
    16  C    0.562136
    18  C    0.117096
    19  O   -0.606054
    21  N   -0.623648
    22  C   -0.004458
    23  C    0.443890
    24  C    0.006808
    27  C   -0.062762
    28  C    0.054307
    29  O   -0.519926
    34  N   -0.170061
 Electronic spatial extent (au):  <R**2>=           8515.8458
 Charge=             -1.0000 electrons
 Dipole moment (field-independent basis, Debye):
    X=             -7.6108    Y=             -1.0216    Z=              2.4884  Tot=              8.0721

 Test job not archived.
 1\1\GINC-LCBCPC75\FOpt\RB3LYP\6-31G(d)\C11H19N4O5(1-)\JVILLARD\14-Feb-
 2018\0\\#T b3lyp/6-31G* opt iop(1/7=10000)\\geometry optimization on i
 n_temp_mol "opt=(maxcycles=2)"\\-1,1\H,-8.7249834728,-4.7152500678,-7.
 2895215366\O,-8.8623310602,-4.436412821,-6.3629007561\C,-7.6067123354,
 -4.2460138194,-5.8619147171\C,-7.6810158992,-3.7949788459,-4.416771637
 1\O,-6.61290615,-4.4224139561,-6.532051027\N,-6.3970328993,-3.46670976
 09,-3.8683647469\H,-8.402572235,-2.9602018566,-4.3658373965\H,-8.11232
 43985,-4.6003941006,-3.8091570299\C,-6.0917289569,-3.8158243079,-2.586
 3835859\H,-5.7622411119,-2.8010217418,-4.3434811815\C,-4.7372426325,-3
 .2667067106,-2.1068355882\O,-6.8012072415,-4.5351306902,-1.8822069516\
 N,-4.6197256536,-1.8263108539,-2.124582194\H,-4.6002750043,-3.61878779
 19,-1.0819524093\H,-3.9511475051,-3.7120455213,-2.7355539606\C,-4.4594
 324824,-1.0669027082,-3.2190136581\H,-4.4740603867,-1.1913607489,-1.28
 88255063\C,-4.2522384526,0.4344355858,-2.8249864128\O,-4.5520628478,-1
 .4747179958,-4.3974576971\H,-5.238169144,0.8592142636,-3.1372992204\N,
 -4.1221863322,0.5688513632,-1.3863519232\C,-3.2467140499,1.0746139464,
 -3.814857396\C,-2.4410441646,0.2351479084,0.1712016087\C,-2.9729531383
 ,1.2256024336,-0.824294492\H,-3.3399006507,0.5328179549,-4.7633237891\
 H,-2.2155745676,0.9157462677,-3.4710149167\C,-3.4886853968,2.568381445
 2,-4.079402789\C,-1.7128509632,-0.9996710208,-0.3799150789\O,-2.623163
 8229,0.3146409723,1.3835927339\H,-3.4126164187,3.1839465769,-3.1706041
 406\H,-3.2061482032,2.1647512769,-0.2757519996\H,-4.4928037947,2.72350
 79031,-4.4962312531\H,-2.7626270469,2.9663001731,-4.8017612174\N,-0.44
 97459294,-1.1364333378,0.3709916248\H,-1.5064239756,-0.8800741062,-1.4
 491639375\H,-2.3730156157,-1.8792037011,-0.2727389766\H,-2.1475186695,
 1.4696125377,-1.5315255996\H,-0.6929778009,-1.0139171231,1.3556206736\
 H,-0.1006295895,-2.090847021,0.2800280812\\Version=ES64L-G16RevA.03\St
 ate=1-A\HF=-1025.7534787\RMSD=5.854e-09\RMSF=1.367e-03\Dipole=-1.11210
 77,-1.7641139,-2.3951972\Quadrupole=7.588826,-1.508798,-6.0800279,-13.
 8871411,-3.3042153,-12.4500888\PG=C01 [X(C11H19N4O5)]\\@


 MARY HAD A LITTLE LAMB
      HIS FEET WERE BLACK AS SOOT,
           AND EVERYWHERE THAT MARY WENT
                HIS SOOTY FOOT HE PUT.

                    -- NONAME
 Job cpu time:       0 days  8 hours 19 minutes 20.0 seconds.
 Elapsed time:       0 days  0 hours 41 minutes 43.1 seconds.
 File lengths (MBytes):  RWF=     77 Int=      0 D2E=      0 Chk=     11 Scr=      1
 Normal termination of Gaussian 16 at Wed Feb 14 18:02:28 2018.
